 Entering Gaussian System, Link 0=g09
 Input=test2-freq.gjf
 Output=test2-freq.log
 Initial command:
 /share/apps/gaussian09/g09/l1.exe /state/partition1/310917.tatras.cnsi.ucsb.edu/Gau-29606.inp -scrdir=/state/partition1/310917.tatras.cnsi.ucsb.edu/
 Entering Link 1 = /share/apps/gaussian09/g09/l1.exe PID=     29607.
  
 Copyright (c) 1988,1990,1992,1993,1995,1998,2003,2009,2011,
            Gaussian, Inc.  All Rights Reserved.
  
 This is part of the Gaussian(R) 09 program.  It is based on
 the Gaussian(R) 03 system (copyright 2003, Gaussian, Inc.),
 the Gaussian(R) 98 system (copyright 1998, Gaussian, Inc.),
 the Gaussian(R) 94 system (copyright 1995, Gaussian, Inc.),
 the Gaussian 92(TM) system (copyright 1992, Gaussian, Inc.),
 the Gaussian 90(TM) system (copyright 1990, Gaussian, Inc.),
 the Gaussian 88(TM) system (copyright 1988, Gaussian, Inc.),
 the Gaussian 86(TM) system (copyright 1986, Carnegie Mellon
 University), and the Gaussian 82(TM) system (copyright 1983,
 Carnegie Mellon University). Gaussian is a federally registered
 trademark of Gaussian, Inc.
  
 This software contains proprietary and confidential information,
 including trade secrets, belonging to Gaussian, Inc.
  
 This software is provided under written license and may be
 used, copied, transmitted, or stored only in accord with that
 written license.
  
 The following legend is applicable only to US Government
 contracts under FAR:
  
                    RESTRICTED RIGHTS LEGEND
  
 Use, reproduction and disclosure by the US Government is
 subject to restrictions as set forth in subparagraphs (a)
 and (c) of the Commercial Computer Software - Restricted
 Rights clause in FAR 52.227-19.
  
 Gaussian, Inc.
 340 Quinnipiac St., Bldg. 40, Wallingford CT 06492
  
  
 ---------------------------------------------------------------
 Warning -- This program may not be used in any manner that
 competes with the business of Gaussian, Inc. or will provide
 assistance to any competitor of Gaussian, Inc.  The licensee
 of this program is prohibited from giving any competitor of
 Gaussian, Inc. access to this program.  By using this program,
 the user acknowledges that Gaussian, Inc. is engaged in the
 business of creating and licensing software in the field of
 computational chemistry and represents and warrants to the
 licensee that it is not a competitor of Gaussian, Inc. and that
 it will not use this program in any manner prohibited above.
 ---------------------------------------------------------------
  

 Cite this work as:
 Gaussian 09, Revision C.01,
 M. J. Frisch, G. W. Trucks, H. B. Schlegel, G. E. Scuseria, 
 M. A. Robb, J. R. Cheeseman, G. Scalmani, V. Barone, B. Mennucci, 
 G. A. Petersson, H. Nakatsuji, M. Caricato, X. Li, H. P. Hratchian, 
 A. F. Izmaylov, J. Bloino, G. Zheng, J. L. Sonnenberg, M. Hada, 
 M. Ehara, K. Toyota, R. Fukuda, J. Hasegawa, M. Ishida, T. Nakajima, 
 Y. Honda, O. Kitao, H. Nakai, T. Vreven, J. A. Montgomery, Jr., 
 J. E. Peralta, F. Ogliaro, M. Bearpark, J. J. Heyd, E. Brothers, 
 K. N. Kudin, V. N. Staroverov, T. Keith, R. Kobayashi, J. Normand, 
 K. Raghavachari, A. Rendell, J. C. Burant, S. S. Iyengar, J. Tomasi, 
 M. Cossi, N. Rega, J. M. Millam, M. Klene, J. E. Knox, J. B. Cross, 
 V. Bakken, C. Adamo, J. Jaramillo, R. Gomperts, R. E. Stratmann, 
 O. Yazyev, A. J. Austin, R. Cammi, C. Pomelli, J. W. Ochterski, 
 R. L. Martin, K. Morokuma, V. G. Zakrzewski, G. A. Voth, 
 P. Salvador, J. J. Dannenberg, S. Dapprich, A. D. Daniels, 
 O. Farkas, J. B. Foresman, J. V. Ortiz, J. Cioslowski, 
 and D. J. Fox, Gaussian, Inc., Wallingford CT, 2010.
 
 ******************************************
 Gaussian 09:  EM64L-G09RevC.01 23-Sep-2011
                28-Feb-2017 
 ******************************************
 %chk=basecheck.chk
 -------------------------
 #p hf/3-21g freq=internal
 -------------------------
 1/10=4,18=20,30=1,38=1/1,3;
 2/9=110,12=2,17=6,18=5,40=1/2;
 3/5=5,11=9,16=1,25=1,30=1,71=2/1,2,3;
 4//1;
 5/5=2,38=5,98=1/2;
 8/6=4,10=90,11=11/1;
 10/13=10,15=4/2;
 11/6=3,8=1,9=11,15=111,16=1/1,2,10;
 10/6=1/2;
 6/7=2,8=2,9=2,10=2,18=1,28=1/1;
 7/8=21,10=1,25=1/1,2,3,16;
 1/10=4,18=20,30=1/3;
 99//99;
 Leave Link    1 at Tue Feb 28 13:51:26 2017, MaxMem=          0 cpu:       0.0
 (Enter /share/apps/gaussian09/g09/l101.exe)
 -------------------
 Title Card Required
 -------------------
 Charge =  0 Multiplicity = 1
 Symbolic Z-Matrix:
 Si                   -0.11306   0.        0. 
 C                     1.74386  0.         0. 
 H                     2.13347   0.69958   0.73073 
 H                     2.13346  -0.98262   0.2405 
 H                     2.13347   0.28303  -0.97121 
 F                    -0.56595   1.60262  -0.39154 
 F                    -0.56595  -0.46222   1.58368 
 F                    -0.56595  -1.14039  -1.19214 
 
 NAtoms=      8 NQM=        0 NQMF=       0 NMMI=      8 NMMIF=      0
                NMic=       0 NMicF=      0.
                    Isotopes and Nuclear Properties:
 (Nuclear quadrupole moments (NQMom) in fm**2, nuclear magnetic moments (NMagM)
  in nuclear magnetons)

  Atom         1           2           3           4           5           6           7           8
 IAtWgt=          28          12           1           1           1          19          19          19
 AtmWgt=  27.9769284  12.0000000   1.0078250   1.0078250   1.0078250  18.9984033  18.9984033  18.9984033
 NucSpn=           0           0           1           1           1           1           1           1
 AtZEff=   0.0000000   0.0000000   0.0000000   0.0000000   0.0000000   0.0000000   0.0000000   0.0000000
 NQMom=    0.0000000   0.0000000   0.0000000   0.0000000   0.0000000   0.0000000   0.0000000   0.0000000
 NMagM=    0.0000000   0.0000000   2.7928460   2.7928460   2.7928460   2.6288670   2.6288670   2.6288670
 Leave Link  101 at Tue Feb 28 13:51:26 2017, MaxMem=   33554432 cpu:       0.1
 (Enter /share/apps/gaussian09/g09/l103.exe)

 GradGradGradGradGradGradGradGradGradGradGradGradGradGradGradGradGradGrad
 Berny optimization.
 Initialization pass.
                           ----------------------------
                           !    Initial Parameters    !
                           ! (Angstroms and Degrees)  !
 --------------------------                            --------------------------
 ! Name  Definition              Value          Derivative Info.                !
 --------------------------------------------------------------------------------
 ! R1    R(1,2)                  1.8569         calculate D2E/DX2 analytically  !
 ! R2    R(1,6)                  1.7108         calculate D2E/DX2 analytically  !
 ! R3    R(1,7)                  1.7108         calculate D2E/DX2 analytically  !
 ! R4    R(1,8)                  1.7108         calculate D2E/DX2 analytically  !
 ! R5    R(2,3)                  1.084          calculate D2E/DX2 analytically  !
 ! R6    R(2,4)                  1.084          calculate D2E/DX2 analytically  !
 ! R7    R(2,5)                  1.084          calculate D2E/DX2 analytically  !
 ! A1    A(2,1,6)              105.3505         calculate D2E/DX2 analytically  !
 ! A2    A(2,1,7)              105.3506         calculate D2E/DX2 analytically  !
 ! A3    A(2,1,8)              105.3506         calculate D2E/DX2 analytically  !
 ! A4    A(6,1,7)              113.2586         calculate D2E/DX2 analytically  !
 ! A5    A(6,1,8)              113.2586         calculate D2E/DX2 analytically  !
 ! A6    A(7,1,8)              113.2586         calculate D2E/DX2 analytically  !
 ! A7    A(1,2,3)              111.0632         calculate D2E/DX2 analytically  !
 ! A8    A(1,2,4)              111.0631         calculate D2E/DX2 analytically  !
 ! A9    A(1,2,5)              111.0632         calculate D2E/DX2 analytically  !
 ! A10   A(3,2,4)              107.8334         calculate D2E/DX2 analytically  !
 ! A11   A(3,2,5)              107.8335         calculate D2E/DX2 analytically  !
 ! A12   A(4,2,5)              107.8334         calculate D2E/DX2 analytically  !
 ! D1    D(6,1,2,3)             59.9766         calculate D2E/DX2 analytically  !
 ! D2    D(6,1,2,4)            179.9765         calculate D2E/DX2 analytically  !
 ! D3    D(6,1,2,5)            -60.0235         calculate D2E/DX2 analytically  !
 ! D4    D(7,1,2,3)            -60.0234         calculate D2E/DX2 analytically  !
 ! D5    D(7,1,2,4)             59.9765         calculate D2E/DX2 analytically  !
 ! D6    D(7,1,2,5)            179.9765         calculate D2E/DX2 analytically  !
 ! D7    D(8,1,2,3)            179.9766         calculate D2E/DX2 analytically  !
 ! D8    D(8,1,2,4)            -60.0235         calculate D2E/DX2 analytically  !
 ! D9    D(8,1,2,5)             59.9765         calculate D2E/DX2 analytically  !
 --------------------------------------------------------------------------------
 Trust Radius=3.00D-01 FncErr=1.00D-07 GrdErr=1.00D-07
 Number of steps in this run=      2 maximum allowed number of steps=      2.
 GradGradGradGradGradGradGradGradGradGradGradGradGradGradGradGradGradGrad

 Leave Link  103 at Tue Feb 28 13:51:26 2017, MaxMem=   33554432 cpu:       0.0
 (Enter /share/apps/gaussian09/g09/l202.exe)
                          Input orientation:                          
 ---------------------------------------------------------------------
 Center     Atomic      Atomic             Coordinates (Angstroms)
 Number     Number       Type             X           Y           Z
 ---------------------------------------------------------------------
      1         14           0       -0.113064    0.000000    0.000000
      2          6           0        1.743863   -0.000002    0.000002
      3          1           0        2.133466    0.699576    0.730726
      4          1           0        2.133464   -0.982617    0.240495
      5          1           0        2.133468    0.283032   -0.971212
      6          9           0       -0.565948    1.602620   -0.391542
      7          9           0       -0.565954   -0.462224    1.583679
      8          9           0       -0.565951   -1.140394   -1.192139
 ---------------------------------------------------------------------
                    Distance matrix (angstroms):
                    1          2          3          4          5
     1  Si   0.000000
     2  C    1.856927   0.000000
     3  H    2.463791   1.084047   0.000000
     4  H    2.463790   1.084047   1.752170   0.000000
     5  H    2.463791   1.084047   1.752171   1.752170   0.000000
     6  F    1.710789   2.838473   3.059707   3.790745   3.060094
     7  F    1.710789   2.838474   3.060094   3.059707   3.790746
     8  F    1.710789   2.838474   3.790746   3.060094   3.059708
                    6          7          8
     6  F    0.000000
     7  F    2.857460   0.000000
     8  F    2.857461   2.857460   0.000000
 This structure is nearly, but not quite of a higher symmetry.
 Consider Symm=Loose if the higher symmetry is desired.
 Stoichiometry    CH3F3Si
 Framework group  C1[X(CH3F3Si)]
 Deg. of freedom    18
 Full point group                 C1      NOp   1
 Largest Abelian subgroup         C1      NOp   1
 Largest concise Abelian subgroup C1      NOp   1
                         Standard orientation:                         
 ---------------------------------------------------------------------
 Center     Atomic      Atomic             Coordinates (Angstroms)
 Number     Number       Type             X           Y           Z
 ---------------------------------------------------------------------
      1         14           0       -0.040393   -0.049108   -0.093490
      2          6           0        0.623016    0.757419    1.441952
      3          1           0        0.959080    0.015693    2.157536
      4          1           0        1.464078    1.401360    1.211490
      5          1           0       -0.136536    1.362857    1.923285
      6          9           0       -1.346391   -1.020515    0.433330
      7          9           0        1.263683   -0.956672   -0.727927
      8          9           0       -0.523872    1.239752   -1.109310
 ---------------------------------------------------------------------
 Rotational constants (GHZ):      3.4302587      3.4302580      3.1942020
 Leave Link  202 at Tue Feb 28 13:51:26 2017, MaxMem=   33554432 cpu:       0.0
 (Enter /share/apps/gaussian09/g09/l301.exe)
 Standard basis: 3-21G (6D, 7F)
 Ernie: Thresh=  0.10000D-02 Tol=  0.10000D-05 Strict=F.
 There are    55 symmetry adapted basis functions of A   symmetry.
 Integral buffers will be    131072 words long.
 Raffenetti 1 integral format.
 Two-electron integral symmetry is turned on.
    55 basis functions,    96 primitive gaussians,    55 cartesian basis functions
    25 alpha electrons       25 beta electrons
       nuclear repulsion energy       247.8845430542 Hartrees.
 IExCor=    0 DFT=F Ex=HF Corr=None ExCW=0 ScaHFX=  1.000000
 ScaDFX=  1.000000  1.000000  1.000000  1.000000 ScalE2=  1.000000  1.000000
 IRadAn=      0 IRanWt=     -1 IRanGd=            0 ICorTp=0
 NAtoms=    8 NActive=    8 NUniq=    8 SFac= 1.00D+00 NAtFMM=   60 NAOKFM=F Big=F
 Leave Link  301 at Tue Feb 28 13:51:26 2017, MaxMem=   33554432 cpu:       0.0
 (Enter /share/apps/gaussian09/g09/l302.exe)
 NPDir=0 NMtPBC=     1 NCelOv=     1 NCel=       1 NClECP=     1 NCelD=      1
         NCelK=      1 NCelE2=     1 NClLst=     1 CellRange=     0.0.
 One-electron integrals computed using PRISM.
 NBasis=    55 RedAO= T  NBF=    55
 NBsUse=    55 1.00D-06 NBFU=    55
 Leave Link  302 at Tue Feb 28 13:51:26 2017, MaxMem=   33554432 cpu:       0.1
 (Enter /share/apps/gaussian09/g09/l303.exe)
 DipDrv:  MaxL=1.
 Leave Link  303 at Tue Feb 28 13:51:26 2017, MaxMem=   33554432 cpu:       0.0
 (Enter /share/apps/gaussian09/g09/l401.exe)
 Harris functional with IExCor=  205 diagonalized for initial guess.
 ExpMin= 9.33D-02 ExpMax= 9.11D+02 ExpMxC= 9.11D+02 IAcc=2 IRadAn=         4 AccDes= 0.00D+00
 HarFok:  IExCor=  205 AccDes= 0.00D+00 IRadAn=         4 IDoV= 1
 ScaDFX=  1.000000  1.000000  1.000000  1.000000
 FoFCou: FMM=F IPFlag=           0 FMFlag=      100000 FMFlg1=           0
         NFxFlg=           0 DoJE=T BraDBF=F KetDBF=T FulRan=T
         Omega=  0.000000  0.000000  1.000000  0.000000  0.000000 ICntrl=     500 IOpCl=  0
         NMat0=    1 NMatS0=    1 NMatT0=    0 NMatD0=    1 NMtDS0=    0 NMtDT0=    0
         I1Cent=           4 NGrid=           0.
 Petite list used in FoFCou.
 Harris En= -623.383661451643    
 Initial guess orbital symmetries:
       Occupied  (A) (A) (A) (A) (A) (A) (A) (A) (A) (A) (A) (A)
                 (A) (A) (A) (A) (A) (A) (A) (A) (A) (A) (A) (A)
                 (A)
       Virtual   (A) (A) (A) (A) (A) (A) (A) (A) (A) (A) (A) (A)
                 (A) (A) (A) (A) (A) (A) (A) (A) (A) (A) (A) (A)
                 (A) (A) (A) (A) (A) (A)
 The electronic state of the initial guess is 1-A.
 Leave Link  401 at Tue Feb 28 13:51:26 2017, MaxMem=   33554432 cpu:       0.3
 (Enter /share/apps/gaussian09/g09/l502.exe)
 Closed shell SCF:
 Requested convergence on RMS density matrix=1.00D-08 within 128 cycles.
 Requested convergence on MAX density matrix=1.00D-06.
 Requested convergence on             energy=1.00D-06.
 No special actions if energy rises.
 Using DIIS extrapolation, IDIIS=  1040.
 Integral symmetry usage will be decided dynamically.
 Keep R1 ints in memory in canonical form, NReq=2014558.
 IEnd=       27974 IEndB=       27974 NGot=    33554432 MDV=    32359581
 LenX=    32359581 LenY=    32356115
 Symmetry not used in FoFDir.
 MinBra= 0 MaxBra= 1 Meth= 1.
 IRaf=       0 NMat=   1 IRICut=       1 DoRegI=T DoRafI=F ISym2E= 0 JSym2E=0.

 Cycle   1  Pass 1  IDiag  1:
 E= -623.524181162969    
 DIIS: error= 5.48D-02 at cycle   1 NSaved=   1.
 NSaved= 1 IEnMin= 1 EnMin= -623.524181162969     IErMin= 1 ErrMin= 5.48D-02
 ErrMax= 5.48D-02 EMaxC= 1.00D-01 BMatC= 3.43D-01 BMatP= 3.43D-01
 IDIUse=3 WtCom= 4.52D-01 WtEn= 5.48D-01
 Coeff-Com:  0.100D+01
 Coeff-En:   0.100D+01
 Coeff:      0.100D+01
 Gap=     0.590 Goal=   None    Shift=    0.000
 GapD=    0.590 DampG=2.000 DampE=0.500 DampFc=1.0000 IDamp=-1.
 RMSDP=7.16D-03 MaxDP=9.08D-02              OVMax= 6.93D-02

 Cycle   2  Pass 1  IDiag  1:
 E= -623.670434563126     Delta-E=       -0.146253400157 Rises=F Damp=F
 DIIS: error= 2.26D-02 at cycle   2 NSaved=   2.
 NSaved= 2 IEnMin= 2 EnMin= -623.670434563126     IErMin= 2 ErrMin= 2.26D-02
 ErrMax= 2.26D-02 EMaxC= 1.00D-01 BMatC= 3.85D-02 BMatP= 3.43D-01
 IDIUse=3 WtCom= 7.74D-01 WtEn= 2.26D-01
 Coeff-Com:  0.194D+00 0.806D+00
 Coeff-En:   0.000D+00 0.100D+01
 Coeff:      0.150D+00 0.850D+00
 Gap=     0.647 Goal=   None    Shift=    0.000
 RMSDP=2.67D-03 MaxDP=2.61D-02 DE=-1.46D-01 OVMax= 2.38D-02

 Cycle   3  Pass 1  IDiag  1:
 E= -623.695172849353     Delta-E=       -0.024738286228 Rises=F Damp=F
 DIIS: error= 6.99D-03 at cycle   3 NSaved=   3.
 NSaved= 3 IEnMin= 3 EnMin= -623.695172849353     IErMin= 3 ErrMin= 6.99D-03
 ErrMax= 6.99D-03 EMaxC= 1.00D-01 BMatC= 2.89D-03 BMatP= 3.85D-02
 IDIUse=3 WtCom= 9.30D-01 WtEn= 6.99D-02
 Coeff-Com: -0.176D-01 0.184D+00 0.833D+00
 Coeff-En:   0.000D+00 0.000D+00 0.100D+01
 Coeff:     -0.163D-01 0.171D+00 0.845D+00
 Gap=     0.639 Goal=   None    Shift=    0.000
 RMSDP=5.37D-04 MaxDP=5.61D-03 DE=-2.47D-02 OVMax= 5.46D-03

 Cycle   4  Pass 1  IDiag  1:
 E= -623.696942297771     Delta-E=       -0.001769448417 Rises=F Damp=F
 DIIS: error= 1.07D-03 at cycle   4 NSaved=   4.
 NSaved= 4 IEnMin= 4 EnMin= -623.696942297771     IErMin= 4 ErrMin= 1.07D-03
 ErrMax= 1.07D-03 EMaxC= 1.00D-01 BMatC= 6.11D-05 BMatP= 2.89D-03
 IDIUse=3 WtCom= 9.89D-01 WtEn= 1.07D-02
 Coeff-Com: -0.635D-02 0.190D-01 0.168D+00 0.820D+00
 Coeff-En:   0.000D+00 0.000D+00 0.000D+00 0.100D+01
 Coeff:     -0.628D-02 0.188D-01 0.166D+00 0.822D+00
 Gap=     0.637 Goal=   None    Shift=    0.000
 DSYEVD returned Info=         111 IAlg= 4 N=    55 NDim=    55 NE2=      588292 trying DSYEV.
 RMSDP=1.33D-04 MaxDP=9.93D-04 DE=-1.77D-03 OVMax= 1.50D-03

 Cycle   5  Pass 1  IDiag  1:
 E= -623.697002257391     Delta-E=       -0.000059959620 Rises=F Damp=F
 DIIS: error= 2.47D-04 at cycle   5 NSaved=   5.
 NSaved= 5 IEnMin= 5 EnMin= -623.697002257391     IErMin= 5 ErrMin= 2.47D-04
 ErrMax= 2.47D-04 EMaxC= 1.00D-01 BMatC= 5.21D-06 BMatP= 6.11D-05
 IDIUse=3 WtCom= 9.98D-01 WtEn= 2.47D-03
 Coeff-Com:  0.241D-02-0.225D-01-0.108D+00-0.459D-01 0.117D+01
 Coeff-En:   0.000D+00 0.000D+00 0.000D+00 0.000D+00 0.100D+01
 Coeff:      0.240D-02-0.224D-01-0.108D+00-0.458D-01 0.117D+01
 Gap=     0.638 Goal=   None    Shift=    0.000
 RMSDP=7.55D-05 MaxDP=4.24D-04 DE=-6.00D-05 OVMax= 1.59D-03

 Cycle   6  Pass 1  IDiag  1:
 E= -623.697014248168     Delta-E=       -0.000011990777 Rises=F Damp=F
 DIIS: error= 7.80D-05 at cycle   6 NSaved=   6.
 NSaved= 6 IEnMin= 6 EnMin= -623.697014248168     IErMin= 6 ErrMin= 7.80D-05
 ErrMax= 7.80D-05 EMaxC= 1.00D-01 BMatC= 2.70D-07 BMatP= 5.21D-06
 IDIUse=1 WtCom= 1.00D+00 WtEn= 0.00D+00
 Coeff-Com: -0.227D-03 0.527D-02 0.232D-01-0.524D-01-0.301D+00 0.133D+01
 Coeff:     -0.227D-03 0.527D-02 0.232D-01-0.524D-01-0.301D+00 0.133D+01
 Gap=     0.638 Goal=   None    Shift=    0.000
 RMSDP=2.10D-05 MaxDP=1.10D-04 DE=-1.20D-05 OVMax= 4.45D-04

 Cycle   7  Pass 1  IDiag  1:
 E= -623.697014895254     Delta-E=       -0.000000647086 Rises=F Damp=F
 DIIS: error= 8.41D-06 at cycle   7 NSaved=   7.
 NSaved= 7 IEnMin= 7 EnMin= -623.697014895254     IErMin= 7 ErrMin= 8.41D-06
 ErrMax= 8.41D-06 EMaxC= 1.00D-01 BMatC= 5.16D-09 BMatP= 2.70D-07
 IDIUse=1 WtCom= 1.00D+00 WtEn= 0.00D+00
 Coeff-Com: -0.601D-04-0.696D-04 0.282D-03 0.995D-02 0.132D-01-0.221D+00
 Coeff-Com:  0.120D+01
 Coeff:     -0.601D-04-0.696D-04 0.282D-03 0.995D-02 0.132D-01-0.221D+00
 Coeff:      0.120D+01
 Gap=     0.638 Goal=   None    Shift=    0.000
 DSYEVD returned Info=         111 IAlg= 4 N=    55 NDim=    55 NE2=      588292 trying DSYEV.
 RMSDP=2.74D-06 MaxDP=2.17D-05 DE=-6.47D-07 OVMax= 5.18D-05

 Cycle   8  Pass 1  IDiag  1:
 E= -623.697014909452     Delta-E=       -0.000000014198 Rises=F Damp=F
 DIIS: error= 2.30D-06 at cycle   8 NSaved=   8.
 NSaved= 8 IEnMin= 8 EnMin= -623.697014909452     IErMin= 8 ErrMin= 2.30D-06
 ErrMax= 2.30D-06 EMaxC= 1.00D-01 BMatC= 3.26D-10 BMatP= 5.16D-09
 IDIUse=1 WtCom= 1.00D+00 WtEn= 0.00D+00
 Coeff-Com:  0.307D-04-0.178D-03-0.102D-02-0.225D-02 0.841D-02 0.274D-01
 Coeff-Com: -0.441D+00 0.141D+01
 Coeff:      0.307D-04-0.178D-03-0.102D-02-0.225D-02 0.841D-02 0.274D-01
 Coeff:     -0.441D+00 0.141D+01
 Gap=     0.638 Goal=   None    Shift=    0.000
 RMSDP=7.75D-07 MaxDP=6.00D-06 DE=-1.42D-08 OVMax= 1.15D-05

 Cycle   9  Pass 1  IDiag  1:
 E= -623.697014910394     Delta-E=       -0.000000000941 Rises=F Damp=F
 DIIS: error= 3.47D-07 at cycle   9 NSaved=   9.
 NSaved= 9 IEnMin= 9 EnMin= -623.697014910394     IErMin= 9 ErrMin= 3.47D-07
 ErrMax= 3.47D-07 EMaxC= 1.00D-01 BMatC= 7.52D-12 BMatP= 3.26D-10
 IDIUse=1 WtCom= 1.00D+00 WtEn= 0.00D+00
 Coeff-Com: -0.872D-05 0.587D-04 0.310D-03 0.510D-03-0.287D-02-0.471D-02
 Coeff-Com:  0.115D+00-0.462D+00 0.135D+01
 Coeff:     -0.872D-05 0.587D-04 0.310D-03 0.510D-03-0.287D-02-0.471D-02
 Coeff:      0.115D+00-0.462D+00 0.135D+01
 Gap=     0.638 Goal=   None    Shift=    0.000
 DSYEVD returned Info=         111 IAlg= 4 N=    55 NDim=    55 NE2=      588292 trying DSYEV.
 RMSDP=1.25D-07 MaxDP=8.93D-07 DE=-9.41D-10 OVMax= 2.59D-06

 Cycle  10  Pass 1  IDiag  1:
 E= -623.697014910417     Delta-E=       -0.000000000024 Rises=F Damp=F
 DIIS: error= 6.50D-08 at cycle  10 NSaved=  10.
 NSaved=10 IEnMin=10 EnMin= -623.697014910417     IErMin=10 ErrMin= 6.50D-08
 ErrMax= 6.50D-08 EMaxC= 1.00D-01 BMatC= 3.34D-13 BMatP= 7.52D-12
 IDIUse=1 WtCom= 1.00D+00 WtEn= 0.00D+00
 Coeff-Com:  0.169D-05-0.125D-04-0.624D-04-0.536D-04 0.582D-03 0.414D-03
 Coeff-Com: -0.203D-01 0.970D-01-0.451D+00 0.137D+01
 Coeff:      0.169D-05-0.125D-04-0.624D-04-0.536D-04 0.582D-03 0.414D-03
 Coeff:     -0.203D-01 0.970D-01-0.451D+00 0.137D+01
 Gap=     0.638 Goal=   None    Shift=    0.000
 RMSDP=2.46D-08 MaxDP=1.50D-07 DE=-2.35D-11 OVMax= 5.60D-07

 Cycle  11  Pass 1  IDiag  1:
 E= -623.697014910417     Delta-E=        0.000000000000 Rises=F Damp=F
 DIIS: error= 1.09D-08 at cycle  11 NSaved=  11.
 NSaved=11 IEnMin=10 EnMin= -623.697014910417     IErMin=11 ErrMin= 1.09D-08
 ErrMax= 1.09D-08 EMaxC= 1.00D-01 BMatC= 7.92D-15 BMatP= 3.34D-13
 IDIUse=1 WtCom= 1.00D+00 WtEn= 0.00D+00
 Coeff-Com: -0.274D-06 0.202D-05 0.102D-04 0.590D-05-0.943D-04-0.256D-04
 Coeff-Com:  0.335D-02-0.177D-01 0.105D+00-0.442D+00 0.135D+01
 Coeff:     -0.274D-06 0.202D-05 0.102D-04 0.590D-05-0.943D-04-0.256D-04
 Coeff:      0.335D-02-0.177D-01 0.105D+00-0.442D+00 0.135D+01
 Gap=     0.638 Goal=   None    Shift=    0.000
 DSYEVD returned Info=         111 IAlg= 4 N=    55 NDim=    55 NE2=      588292 trying DSYEV.
 RMSDP=3.62D-09 MaxDP=2.85D-08 DE= 0.00D+00 OVMax= 6.44D-08

 SCF Done:  E(RHF) =  -623.697014910     A.U. after   11 cycles
             Convg  =    0.3619D-08             -V/T =  2.0036
 KE= 6.214733582577D+02 PE=-1.982902030113D+03 EE= 4.898471138902D+02
 Leave Link  502 at Tue Feb 28 13:51:27 2017, MaxMem=   33554432 cpu:       0.1
 (Enter /share/apps/gaussian09/g09/l801.exe)
 Range of M.O.s used for correlation:     1    55
 NBasis=    55 NAE=    25 NBE=    25 NFC=     0 NFV=     0
 NROrb=     55 NOA=    25 NOB=    25 NVA=    30 NVB=    30
 Leave Link  801 at Tue Feb 28 13:51:27 2017, MaxMem=   33554432 cpu:       0.0
 (Enter /share/apps/gaussian09/g09/l1002.exe)
 Minotr:  Closed shell wavefunction.
          Direct CPHF calculation.
          Differentiating once with respect to electric field.
                with respect to dipole field.
          Electric field/nuclear overlap derivatives assumed to be zero.
          Requested convergence is 1.0D-08 RMS, and 1.0D-07 maximum.
          Secondary convergence is 1.0D-12 RMS, and 1.0D-12 maximum.
          NewPWx=F KeepS1=T KeepF1=T KeepIn=T MapXYZ=F SortEE=F KeepMc=T.
          MDV=      33554364 using IRadAn=       2.
          Keep R1 ints in memory in canonical form, NReq=1987161.
 Symmetry not used in FoFDir.
 MinBra= 0 MaxBra= 1 Meth= 1.
 IRaf=       0 NMat=   1 IRICut=       1 DoRegI=T DoRafI=F ISym2E= 0 JSym2E=0.
          Solving linear equations simultaneously, MaxMat=       0.
          There are     3 degrees of freedom in the 1st order CPHF.  IDoFFX=0.
      3 vectors produced by pass  0 Test12= 2.50D-14 3.33D-08 XBig12= 5.62D+00 9.58D-01.
 AX will form     3 AO Fock derivatives at one time.
      3 vectors produced by pass  1 Test12= 2.50D-14 3.33D-08 XBig12= 2.29D-01 1.15D-01.
      3 vectors produced by pass  2 Test12= 2.50D-14 3.33D-08 XBig12= 3.23D-02 5.51D-02.
      3 vectors produced by pass  3 Test12= 2.50D-14 3.33D-08 XBig12= 1.33D-03 1.27D-02.
      3 vectors produced by pass  4 Test12= 2.50D-14 3.33D-08 XBig12= 3.01D-05 1.74D-03.
      3 vectors produced by pass  5 Test12= 2.50D-14 3.33D-08 XBig12= 8.46D-07 2.70D-04.
      3 vectors produced by pass  6 Test12= 2.50D-14 3.33D-08 XBig12= 1.77D-08 4.45D-05.
      3 vectors produced by pass  7 Test12= 2.50D-14 3.33D-08 XBig12= 2.35D-10 4.37D-06.
      3 vectors produced by pass  8 Test12= 2.50D-14 3.33D-08 XBig12= 4.28D-12 7.05D-07.
      2 vectors produced by pass  9 Test12= 2.50D-14 3.33D-08 XBig12= 3.36D-14 4.57D-08.
 Inverted reduced A of dimension    29 with in-core refinement.
 End of Minotr Frequency-dependent properties file   721 does not exist.
 End of Minotr Frequency-dependent properties file   722 does not exist.
 Leave Link 1002 at Tue Feb 28 13:51:27 2017, MaxMem=   33554432 cpu:       0.2
 (Enter /share/apps/gaussian09/g09/l1101.exe)
 Using compressed storage, NAtomX=     8.
 Will process   9 centers per pass.
 Leave Link 1101 at Tue Feb 28 13:51:27 2017, MaxMem=   33554432 cpu:       0.1
 (Enter /share/apps/gaussian09/g09/l1102.exe)
 Symmetrizing basis deriv contribution to polar:
 IMax=3 JMax=2 DiffMx= 0.00D+00
 Leave Link 1102 at Tue Feb 28 13:51:27 2017, MaxMem=   33554432 cpu:       0.0
 (Enter /share/apps/gaussian09/g09/l1110.exe)
 Forming Gx(P) for the SCF density, NAtomX=     8.
 Integral derivatives from FoFDir/FoFCou, PRISM(SPDF).
 Do as many integral derivatives as possible in FoFDir.
 G2DrvN: MDV=      33554264.
 G2DrvN: will do     9 centers at a time, making    1 passes doing MaxLOS=1.
 Calling FoFCou, ICntrl=  3107 FMM=F I1Cent=   0 AccDes= 0.00D+00.
 FoFCou: FMM=F IPFlag=           0 FMFlag=      100000 FMFlg1=           0
         NFxFlg=           0 DoJE=F BraDBF=F KetDBF=F FulRan=T
         Omega=  0.000000  0.000000  1.000000  0.000000  0.000000 ICntrl=    3107 IOpCl=  0
         NMat0=    1 NMatS0=    1 NMatT0=    0 NMatD0=    4 NMtDS0=    3 NMtDT0=    0
         I1Cent=           0 NGrid=           0.
 Symmetry not used in FoFCou.
 FoFDir/FoFCou used for L=0 through L=1.
 End of G2Drv Frequency-dependent properties file   721 does not exist.
 End of G2Drv Frequency-dependent properties file   722 does not exist.
 Leave Link 1110 at Tue Feb 28 13:51:27 2017, MaxMem=   33554432 cpu:       0.4
 (Enter /share/apps/gaussian09/g09/l1002.exe)
 Minotr:  Closed shell wavefunction.
          IDoAtm=11111111
          Direct CPHF calculation.
          Differentiating once with respect to electric field.
                with respect to dipole field.
          Differentiating once with respect to nuclear coordinates.
          Requested convergence is 1.0D-08 RMS, and 1.0D-07 maximum.
          Secondary convergence is 1.0D-12 RMS, and 1.0D-12 maximum.
          NewPWx=T KeepS1=F KeepF1=F KeepIn=T MapXYZ=F SortEE=F KeepMc=T.
          MDV=      33554348 using IRadAn=       2.
          Keep R1 ints in memory in canonical form, NReq=1987329.
 Symmetry not used in FoFDir.
 MinBra= 0 MaxBra= 1 Meth= 1.
 IRaf=       0 NMat=   1 IRICut=       1 DoRegI=T DoRafI=F ISym2E= 0 JSym2E=0.
          Solving linear equations simultaneously, MaxMat=       0.
          There are    27 degrees of freedom in the 1st order CPHF.  IDoFFX=5.
 Will reuse    3 saved solutions.
     21 vectors produced by pass  0 Test12= 2.78D-15 3.70D-09 XBig12= 3.90D-02 7.75D-02.
 AX will form    21 AO Fock derivatives at one time.
     21 vectors produced by pass  1 Test12= 2.78D-15 3.70D-09 XBig12= 3.72D-03 1.54D-02.
     21 vectors produced by pass  2 Test12= 2.78D-15 3.70D-09 XBig12= 1.77D-04 4.28D-03.
     21 vectors produced by pass  3 Test12= 2.78D-15 3.70D-09 XBig12= 1.77D-06 2.74D-04.
     21 vectors produced by pass  4 Test12= 2.78D-15 3.70D-09 XBig12= 1.16D-08 2.10D-05.
     21 vectors produced by pass  5 Test12= 2.78D-15 3.70D-09 XBig12= 5.86D-11 1.62D-06.
     14 vectors produced by pass  6 Test12= 2.78D-15 3.70D-09 XBig12= 2.18D-13 1.02D-07.
      3 vectors produced by pass  7 Test12= 2.78D-15 3.70D-09 XBig12= 1.15D-15 6.78D-09.
 Inverted reduced A of dimension   143 with in-core refinement.
 FullF1:  Do perturbations    1 to     3.
 Isotropic polarizability for W=    0.000000       23.07 Bohr**3.
 FullF1:  Do perturbations    1 to     6.
 End of Minotr Frequency-dependent properties file   721 does not exist.
 End of Minotr Frequency-dependent properties file   722 does not exist.
 Leave Link 1002 at Tue Feb 28 13:51:28 2017, MaxMem=   33554432 cpu:       0.5
 (Enter /share/apps/gaussian09/g09/l601.exe)
 Copying SCF densities to generalized density rwf, IOpCl= 0 IROHF=0.

 **********************************************************************

            Population analysis using the SCF density.

 **********************************************************************

 Orbital symmetries:
       Occupied  (A) (A) (A) (A) (A) (A) (A) (A) (A) (A) (A) (A)
                 (A) (A) (A) (A) (A) (A) (A) (A) (A) (A) (A) (A)
                 (A)
       Virtual   (A) (A) (A) (A) (A) (A) (A) (A) (A) (A) (A) (A)
                 (A) (A) (A) (A) (A) (A) (A) (A) (A) (A) (A) (A)
                 (A) (A) (A) (A) (A) (A)
 The electronic state is 1-A.
 Alpha  occ. eigenvalues --  -68.49565 -26.16158 -26.16125 -26.16125 -11.18626
 Alpha  occ. eigenvalues --   -6.27363  -4.37165  -4.37084  -4.37084  -1.57597
 Alpha  occ. eigenvalues --   -1.55767  -1.55767  -0.99535  -0.77005  -0.68360
 Alpha  occ. eigenvalues --   -0.68360  -0.67132  -0.63609  -0.63609  -0.62250
 Alpha  occ. eigenvalues --   -0.62250  -0.62128  -0.58514  -0.58514  -0.51029
 Alpha virt. eigenvalues --    0.12733   0.22737   0.22737   0.23721   0.31078
 Alpha virt. eigenvalues --    0.31078   0.34818   0.47836   0.52750   0.56478
 Alpha virt. eigenvalues --    0.56478   0.96579   0.96579   1.04976   1.31390
 Alpha virt. eigenvalues --    1.31390   1.36868   1.94291   2.21041   2.21041
 Alpha virt. eigenvalues --    2.21547   2.26823   2.26823   2.39723   2.39723
 Alpha virt. eigenvalues --    2.44407   2.45408   3.68214   3.68214   3.85602
          Condensed to atoms (all electrons):
              1          2          3          4          5          6
     1  Si  11.263574   0.168434  -0.016298  -0.016298  -0.016298   0.233928
     2  C    0.168434   6.006815   0.357905   0.357905   0.357905  -0.017043
     3  H   -0.016298   0.357905   0.438193  -0.019456  -0.019456  -0.000736
     4  H   -0.016298   0.357905  -0.019456   0.438194  -0.019456   0.000111
     5  H   -0.016298   0.357905  -0.019456  -0.019456   0.438193  -0.000735
     6  F    0.233928  -0.017043  -0.000736   0.000111  -0.000735   9.286956
     7  F    0.233928  -0.017043  -0.000735  -0.000736   0.000111  -0.001460
     8  F    0.233928  -0.017043   0.000111  -0.000735  -0.000736  -0.001460
              7          8
     1  Si   0.233928   0.233928
     2  C   -0.017043  -0.017043
     3  H   -0.000735   0.000111
     4  H   -0.000736  -0.000735
     5  H    0.000111  -0.000736
     6  F   -0.001460  -0.001460
     7  F    9.286956  -0.001460
     8  F   -0.001460   9.286956
 Mulliken atomic charges:
              1
     1  Si   1.915102
     2  C   -1.197835
     3  H    0.260472
     4  H    0.260472
     5  H    0.260473
     6  F   -0.499561
     7  F   -0.499561
     8  F   -0.499561
 Sum of Mulliken atomic charges =   0.00000
 Mulliken charges with hydrogens summed into heavy atoms:
              1
     1  Si   1.915102
     2  C   -0.416418
     6  F   -0.499561
     7  F   -0.499561
     8  F   -0.499561
 Sum of Mulliken charges with hydrogens summed into heavy atoms =   0.00000
 APT atomic charges:
              1
     1  Si   2.189371
     2  C   -0.474036
     3  H    0.072209
     4  H    0.072209
     5  H    0.072210
     6  F   -0.643988
     7  F   -0.643988
     8  F   -0.643988
 Sum of APT charges=   0.00000
 APT Atomic charges with hydrogens summed into heavy atoms:
              1
     1  Si   2.189371
     2  C   -0.257408
     3  H    0.000000
     4  H    0.000000
     5  H    0.000000
     6  F   -0.643988
     7  F   -0.643988
     8  F   -0.643988
 Sum of APT charges=   0.00000
 Electronic spatial extent (au):  <R**2>=            500.1085
 Charge=              0.0000 electrons
 Dipole moment (field-independent basis, Debye):
    X=              0.6381    Y=              0.7758    Z=              1.4769  Tot=              1.7861
 Quadrupole moment (field-independent basis, Debye-Ang):
   XX=            -37.8736   YY=            -37.4487   ZZ=            -34.0005
   XY=              1.0808   XZ=              2.0575   YZ=              2.5014
 Traceless Quadrupole moment (field-independent basis, Debye-Ang):
   XX=             -1.4327   YY=             -1.0078   ZZ=              2.4404
   XY=              1.0808   XZ=              2.0575   YZ=              2.5014
 Octapole moment (field-independent basis, Debye-Ang**2):
  XXX=             -3.7618  YYY=             -6.3371  ZZZ=             -8.4196  XYY=              0.9385
  XXY=              5.8097  XXZ=             -2.3606  XZZ=             -1.4773  YZZ=             -4.7009
  YYZ=              0.8268  XYZ=             -5.9591
 Hexadecapole moment (field-independent basis, Debye-Ang**3):
 XXXX=           -168.5682 YYYY=           -169.4175 ZZZZ=           -194.3869 XXXY=             -4.0733
 XXXZ=             -3.8726 YYYX=             -2.9100 YYYZ=             -6.2548 ZZZX=             -9.7403
 ZZZY=             -9.8977 XXYY=            -59.1912 XXZZ=            -60.8995 YYZZ=            -63.3379
 XXYZ=             -3.2002 YYXZ=             -2.3057 ZZXY=             -1.3783
 N-N= 2.478845430542D+02 E-N=-1.982902030355D+03  KE= 6.214733582577D+02
  Exact polarizability:  23.416  -0.262  23.313  -0.499  -0.607  22.477
 Approx polarizability:  19.987  -0.663  19.727  -1.261  -1.533  17.613
 No NMR shielding tensors so no spin-rotation constants.
 Leave Link  601 at Tue Feb 28 13:51:28 2017, MaxMem=   33554432 cpu:       0.1
 (Enter /share/apps/gaussian09/g09/l701.exe)
 Compute integral second derivatives.
 ... and contract with generalized density number  0.
 Leave Link  701 at Tue Feb 28 13:51:28 2017, MaxMem=   33554432 cpu:       0.1
 (Enter /share/apps/gaussian09/g09/l702.exe)
 L702 exits ... SP integral derivatives will be done elsewhere.
 Leave Link  702 at Tue Feb 28 13:51:28 2017, MaxMem=   33554432 cpu:       0.0
 (Enter /share/apps/gaussian09/g09/l703.exe)
 Compute integral second derivatives, UseDBF=F ICtDFT=           0.
 Integral derivatives from FoFDir, PRISM(SPDF).
 Calling FoFJK, ICntrl=    100127 FMM=F ISym2X=0 I1Cent= 0 IOpClX= 0 NMat=1 NMatS=1 NMatT=0.
 FoFCou: FMM=F IPFlag=           0 FMFlag=      100000 FMFlg1=         800
         NFxFlg=           0 DoJE=F BraDBF=F KetDBF=F FulRan=T
         Omega=  0.000000  0.000000  1.000000  0.000000  0.000000 ICntrl=  100127 IOpCl=  0
         NMat0=    1 NMatS0=    1 NMatT0=    0 NMatD0=    1 NMtDS0=    0 NMtDT0=    0
         I1Cent=           0 NGrid=           0.
 Symmetry not used in FoFCou.
 Leave Link  703 at Tue Feb 28 13:51:29 2017, MaxMem=   33554432 cpu:       0.7
 (Enter /share/apps/gaussian09/g09/l716.exe)
 Dipole        = 2.51051080D-01 3.05208589D-01 5.81046956D-01
 Polarizability= 2.34157379D+01-2.62063769D-01 2.33127032D+01
                -4.98908546D-01-6.06538465D-01 2.24765955D+01
 HyperPolar    =-3.55607781D+00 2.65167748D+01 7.21362536D+00
                -1.10113480D+01-5.98742796D-01-2.24769347D+01
                 1.16175957D+01-1.70059616D+00-1.31264009D+01
                -6.48976006D+00
 Full mass-weighted force constant matrix:
 Low frequencies ---   -0.0032   -0.0024   -0.0017  111.6401  111.6403  156.2612
 Low frequencies ---  190.0211  252.7905  252.7906
 Harmonic frequencies (cm**-1), IR intensities (KM/Mole), Raman scattering
 activities (A**4/AMU), depolarization ratios for plane and unpolarized
 incident light, reduced masses (AMU), force constants (mDyne/A),
 and normal coordinates:
                     1                      2                      3
                     A                      A                      A
 Frequencies --   164.0184               241.7310               241.7311
 Red. masses --     1.0268                 4.3352                 4.3352
 Frc consts  --     0.0163                 0.1493                 0.1493
 IR Inten    --     0.0000                 0.0023                 0.0023
 Raman Activ --     0.0000                 0.7024                 0.7024
 Depolar (P) --     0.2902                 0.7500                 0.7500
 Depolar (U) --     0.4498                 0.8571                 0.8571
  Atom  AN      X      Y      Z        X      Y      Z        X      Y      Z
     1  14     0.00   0.00   0.00    -0.04   0.04   0.00     0.03   0.03  -0.03
     2   6     0.00   0.00   0.00     0.22  -0.20   0.01    -0.17  -0.18   0.17
     3   1     0.53   0.01  -0.23     0.24  -0.41  -0.21    -0.34  -0.36   0.06
     4   1    -0.36   0.44  -0.08     0.31  -0.34  -0.04    -0.12  -0.12   0.53
     5   1    -0.17  -0.46   0.31     0.44  -0.16   0.29    -0.29  -0.33   0.16
     6   9    -0.01   0.01   0.00    -0.10   0.09  -0.06     0.05   0.11   0.21
     7   9    -0.01  -0.01   0.01     0.12   0.13   0.16     0.00   0.08  -0.14
     8   9     0.02   0.00  -0.01    -0.15  -0.10  -0.11     0.05  -0.08  -0.17
                     4                      5                      6
                     A                      A                      A
 Frequencies --   356.7330               356.7331               403.1913
 Red. masses --     9.4928                 9.4928                10.5499
 Frc consts  --     0.7118                 0.7118                 1.0105
 IR Inten    --    24.0098                24.0098                89.9606
 Raman Activ --     1.1343                 1.1343                 1.6501
 Depolar (P) --     0.7500                 0.7500                 0.6648
 Depolar (U) --     0.8571                 0.8571                 0.7987
  Atom  AN      X      Y      Z        X      Y      Z        X      Y      Z
     1  14     0.14  -0.17   0.03     0.15   0.11  -0.12     0.09   0.12   0.22
     2   6    -0.08   0.09  -0.02    -0.08  -0.06   0.07     0.14   0.17   0.32
     3   1    -0.06   0.39   0.27    -0.29  -0.23  -0.02     0.14   0.17   0.32
     4   1    -0.19   0.24  -0.04    -0.05   0.05   0.52     0.14   0.17   0.32
     5   1    -0.32   0.07  -0.35    -0.28  -0.24  -0.01     0.14   0.17   0.32
     6   9    -0.26   0.32  -0.06     0.22   0.16  -0.09     0.08   0.01  -0.32
     7   9     0.25   0.03  -0.20     0.01  -0.36   0.14    -0.30   0.00  -0.15
     8   9    -0.12  -0.19   0.23    -0.37   0.10   0.06    -0.04  -0.32  -0.10
                     7                      8                      9
                     A                      A                      A
 Frequencies --   616.4320               820.3120               820.3123
 Red. masses --     9.9895                 6.4583                 6.4583
 Frc consts  --     2.2365                 2.5605                 2.5605
 IR Inten    --    23.0460                88.3736                88.3735
 Raman Activ --    11.1543                 2.4523                 2.4523
 Depolar (P) --     0.0067                 0.7500                 0.7500
 Depolar (U) --     0.0133                 0.8571                 0.8571
  Atom  AN      X      Y      Z        X      Y      Z        X      Y      Z
     1  14     0.02   0.03   0.06    -0.06   0.27  -0.12     0.28   0.00  -0.12
     2   6     0.14   0.17   0.33    -0.02   0.11  -0.05     0.11   0.00  -0.05
     3   1     0.14   0.16   0.32    -0.21  -0.41  -0.49    -0.19   0.00   0.09
     4   1     0.14   0.17   0.31     0.18  -0.03   0.34     0.05   0.27   0.52
     5   1     0.13   0.17   0.32     0.13  -0.03   0.35    -0.34  -0.28  -0.40
     6   9    -0.28  -0.22   0.07    -0.11  -0.11   0.04    -0.22  -0.15   0.07
     7   9     0.25  -0.20  -0.17     0.11  -0.11  -0.05    -0.21   0.14   0.12
     8   9    -0.11   0.24  -0.24     0.10  -0.23   0.20    -0.03   0.00   0.01
                    10                     11                     12
                     A                      A                      A
 Frequencies --   872.6165              1002.4522              1002.4525
 Red. masses --     6.9440                 1.5284                 1.5284
 Frc consts  --     3.1154                 0.9049                 0.9049
 IR Inten    --   191.0996               121.1167               121.1166
 Raman Activ --     3.6177                 1.5554                 1.5554
 Depolar (P) --     0.3061                 0.7500                 0.7500
 Depolar (U) --     0.4687                 0.8571                 0.8571
  Atom  AN      X      Y      Z        X      Y      Z        X      Y      Z
     1  14     0.13   0.16   0.30     0.06  -0.07   0.01    -0.06  -0.05   0.05
     2   6    -0.15  -0.18  -0.35    -0.10   0.11  -0.01     0.10   0.08  -0.08
     3   1    -0.17  -0.21  -0.39    -0.04  -0.38  -0.52    -0.35  -0.26  -0.21
     4   1    -0.16  -0.20  -0.39     0.17  -0.24  -0.01     0.17   0.23   0.69
     5   1    -0.17  -0.20  -0.39     0.33   0.13   0.59    -0.25  -0.31  -0.11
     6   9    -0.07  -0.06  -0.01    -0.01   0.01   0.00     0.02   0.02  -0.02
     7   9     0.04  -0.06  -0.06    -0.03   0.02   0.00     0.02   0.00  -0.01
     8   9    -0.04   0.04  -0.08    -0.01   0.03  -0.01     0.01   0.02  -0.01
                    13                     14                     15
                     A                      A                      A
 Frequencies --  1534.3609              1627.8508              1627.8515
 Red. masses --     1.2125                 1.0493                 1.0493
 Frc consts  --     1.6818                 1.6383                 1.6383
 IR Inten    --    73.3692                15.6180                15.6181
 Raman Activ --     1.6809                18.8313                18.8313
 Depolar (P) --     0.5540                 0.7500                 0.7500
 Depolar (U) --     0.7130                 0.8571                 0.8571
  Atom  AN      X      Y      Z        X      Y      Z        X      Y      Z
     1  14     0.00   0.00   0.00     0.00   0.00   0.00     0.00   0.00   0.00
     2   6    -0.05  -0.06  -0.11    -0.03  -0.04   0.03    -0.05   0.04   0.00
     3   1     0.14   0.44   0.34     0.39  -0.21  -0.36     0.54   0.21  -0.07
     4   1     0.02   0.12   0.56    -0.13   0.22   0.32     0.43  -0.51   0.20
     5   1     0.40   0.12   0.39     0.14   0.54  -0.44    -0.31  -0.20  -0.15
     6   9     0.00   0.00   0.00     0.00   0.00   0.00     0.00   0.00   0.00
     7   9     0.00   0.00   0.00     0.00   0.00   0.00     0.00   0.00   0.00
     8   9     0.00   0.00   0.00     0.00   0.00   0.00     0.00   0.00   0.00
                    16                     17                     18
                     A                      A                      A
 Frequencies --  3209.4814              3281.3082              3281.3115
 Red. masses --     1.0361                 1.0986                 1.0986
 Frc consts  --     6.2881                 6.9693                 6.9694
 IR Inten    --     0.0052                 1.2745                 1.2744
 Raman Activ --    96.2053                66.9970                66.9968
 Depolar (P) --     0.0215                 0.7500                 0.7500
 Depolar (U) --     0.0421                 0.8571                 0.8571
  Atom  AN      X      Y      Z        X      Y      Z        X      Y      Z
     1  14     0.00   0.00   0.00     0.00   0.00   0.00     0.00   0.00   0.00
     2   6    -0.02  -0.02  -0.04    -0.05  -0.06   0.05    -0.07   0.06   0.00
     3   1     0.18  -0.40   0.37    -0.19   0.38  -0.37     0.17  -0.40   0.40
     4   1     0.45   0.34  -0.14     0.62   0.47  -0.16     0.14   0.13  -0.04
     5   1    -0.41   0.32   0.25     0.15  -0.15  -0.09     0.54  -0.43  -0.36
     6   9     0.00   0.00   0.00     0.00   0.00   0.00     0.00   0.00   0.00
     7   9     0.00   0.00   0.00     0.00   0.00   0.00     0.00   0.00   0.00
     8   9     0.00   0.00   0.00     0.00   0.00   0.00     0.00   0.00   0.00

 -------------------
 - Thermochemistry -
 -------------------
 Temperature   298.150 Kelvin.  Pressure   1.00000 Atm.
 Atom     1 has atomic number 14 and mass  27.97693
 Atom     2 has atomic number  6 and mass  12.00000
 Atom     3 has atomic number  1 and mass   1.00783
 Atom     4 has atomic number  1 and mass   1.00783
 Atom     5 has atomic number  1 and mass   1.00783
 Atom     6 has atomic number  9 and mass  18.99840
 Atom     7 has atomic number  9 and mass  18.99840
 Atom     8 has atomic number  9 and mass  18.99840
 Molecular mass:    99.99561 amu.
 Principal axes and moments of inertia in atomic units:
                           1         2         3
     Eigenvalues --   526.12394 526.12404 565.00534
           X            0.01855   0.93382   0.35726
           Y            0.88182  -0.18368   0.43433
           Z           -0.47121  -0.30699   0.82687
 This molecule is an asymmetric top.
 Rotational symmetry number  1.
 Warning -- assumption of classical behavior for rotation
           may cause significant error
 Rotational temperatures (Kelvin)      0.16463     0.16463     0.15330
 Rotational constants (GHZ):           3.43026     3.43026     3.19420
 Zero-point vibrational energy     128364.6 (Joules/Mol)
                                   30.67987 (Kcal/Mol)
 Warning -- explicit consideration of   7 degrees of freedom as
           vibrations may cause significant error
 Vibrational temperatures:    235.99   347.80   347.80   513.26   513.26
          (Kelvin)            580.10   886.91  1180.24  1180.24  1255.50
                             1442.30  1442.30  2207.60  2342.11  2342.11
                             4617.72  4721.06  4721.07
 
 Zero-point correction=                           0.048891 (Hartree/Particle)
 Thermal correction to Energy=                    0.054793
 Thermal correction to Enthalpy=                  0.055737
 Thermal correction to Gibbs Free Energy=         0.019274
 Sum of electronic and zero-point Energies=           -623.648123
 Sum of electronic and thermal Energies=              -623.642222
 Sum of electronic and thermal Enthalpies=            -623.641277
 Sum of electronic and thermal Free Energies=         -623.677741
 
                     E (Thermal)             CV                S
                      KCal/Mol        Cal/Mol-Kelvin    Cal/Mol-Kelvin
 Total                   34.383             19.669             76.745
 Electronic               0.000              0.000              0.000
 Translational            0.889              2.981             39.718
 Rotational               0.889              2.981             26.550
 Vibrational             32.606             13.708             10.477
 Vibration     1          0.623              1.887              2.503
 Vibration     2          0.658              1.776              1.790
 Vibration     3          0.658              1.776              1.790
 Vibration     4          0.732              1.561              1.136
 Vibration     5          0.732              1.561              1.136
 Vibration     6          0.769              1.463              0.951
 Vibration     7          0.976              0.997              0.422
                       Q            Log10(Q)             Ln(Q)
 Total Bot       0.136384D-08         -8.865236        -20.412959
 Total V=0       0.419988D+14         13.623237         31.368662
 Vib (Bot)       0.245119D-21        -21.610623        -49.760298
 Vib (Bot)    1  0.123104D+01          0.090272          0.207858
 Vib (Bot)    2  0.810512D+00         -0.091241         -0.210090
 Vib (Bot)    3  0.810511D+00         -0.091241         -0.210090
 Vib (Bot)    4  0.514918D+00         -0.288262         -0.663748
 Vib (Bot)    5  0.514918D+00         -0.288262         -0.663748
 Vib (Bot)    6  0.441029D+00         -0.355533         -0.818645
 Vib (Bot)    7  0.238130D+00         -0.623186         -1.434938
 Vib (V=0)       0.754830D+01          0.877849          2.021323
 Vib (V=0)    1  0.182870D+01          0.262144          0.603608
 Vib (V=0)    2  0.145233D+01          0.162065          0.373168
 Vib (V=0)    3  0.145233D+01          0.162065          0.373168
 Vib (V=0)    4  0.121773D+01          0.085552          0.196991
 Vib (V=0)    5  0.121773D+01          0.085552          0.196991
 Vib (V=0)    6  0.116671D+01          0.066964          0.154191
 Vib (V=0)    7  0.105381D+01          0.022762          0.052413
 Electronic      0.100000D+01          0.000000          0.000000
 Translational   0.393031D+08          7.594427         17.486814
 Rotational      0.141567D+06          5.150961         11.860526
                           ----------------------------
                           ! Normal Mode     1        !
 --------------------------                            --------------------------
 ! Name  Definition              Value          Relative Weight (%)             !
 --------------------------------------------------------------------------------
 ! D1    D(6,1,2,3)              0.3079                 11.1                    !
 ! D2    D(6,1,2,4)              0.3079                 11.1                    !
 ! D3    D(6,1,2,5)              0.3079                 11.1                    !
 ! D4    D(7,1,2,3)              0.3079                 11.1                    !
 ! D5    D(7,1,2,4)              0.3079                 11.1                    !
 ! D6    D(7,1,2,5)              0.3079                 11.1                    !
 ! D7    D(8,1,2,3)              0.3079                 11.1                    !
 ! D8    D(8,1,2,4)              0.3079                 11.1                    !
 ! D9    D(8,1,2,5)              0.3079                 11.1                    !
 --------------------------------------------------------------------------------
                           ----------------------------
                           ! Normal Mode     2        !
 --------------------------                            --------------------------
 ! Name  Definition              Value          Relative Weight (%)             !
 --------------------------------------------------------------------------------
 ! R3    R(1,7)                  0.0152                  1.5                    !
 ! A1    A(2,1,6)                0.0337                  3.4                    !
 ! A2    A(2,1,7)               -0.1719                 17.5                    !
 ! A3    A(2,1,8)                0.1382                 14.0                    !
 ! A4    A(6,1,7)                0.0586                  6.0                    !
 ! A5    A(6,1,8)               -0.0729                  7.4                    !
 ! A6    A(7,1,8)                0.0143                  1.5                    !
 ! A7    A(1,2,3)               -0.0622                  6.3                    !
 ! A8    A(1,2,4)               -0.0152                  1.5                    !
 ! A9    A(1,2,5)                0.0774                  7.9                    !
 ! A10   A(3,2,4)               -0.0171                  1.7                    !
 ! A12   A(4,2,5)                0.0138                  1.4                    !
 ! D1    D(6,1,2,3)              0.0301                  3.1                    !
 ! D2    D(6,1,2,4)             -0.0432                  4.4                    !
 ! D3    D(6,1,2,5)              0.0157                  1.6                    !
 ! D4    D(7,1,2,3)              0.0289                  2.9                    !
 ! D5    D(7,1,2,4)             -0.0443                  4.5                    !
 ! D6    D(7,1,2,5)              0.0145                  1.5                    !
 ! D7    D(8,1,2,3)              0.0286                  2.9                    !
 ! D8    D(8,1,2,4)             -0.0446                  4.5                    !
 ! D9    D(8,1,2,5)              0.0142                  1.4                    !
 --------------------------------------------------------------------------------
                           ----------------------------
                           ! Normal Mode     3        !
 --------------------------                            --------------------------
 ! Name  Definition              Value          Relative Weight (%)             !
 --------------------------------------------------------------------------------
 ! R2    R(1,6)                  0.0158                  1.6                    !
 ! A1    A(2,1,6)               -0.179                  17.8                    !
 ! A2    A(2,1,7)                0.0603                  6.0                    !
 ! A3    A(2,1,8)                0.1187                 11.8                    !
 ! A4    A(6,1,7)                0.0504                  5.0                    !
 ! A5    A(6,1,8)                0.0256                  2.5                    !
 ! A6    A(7,1,8)               -0.0759                  7.6                    !
 ! A7    A(1,2,3)               -0.0535                  5.3                    !
 ! A8    A(1,2,4)                0.0806                  8.0                    !
 ! A9    A(1,2,5)               -0.0271                  2.7                    !
 ! A11   A(3,2,5)               -0.0178                  1.8                    !
 ! D1    D(6,1,2,3)             -0.0338                  3.4                    !
 ! D3    D(6,1,2,5)              0.0425                  4.2                    !
 ! D4    D(7,1,2,3)             -0.0348                  3.5                    !
 ! D6    D(7,1,2,5)              0.0414                  4.1                    !
 ! D7    D(8,1,2,3)             -0.0333                  3.3                    !
 ! D9    D(8,1,2,5)              0.043                   4.3                    !
 --------------------------------------------------------------------------------
                           ----------------------------
                           ! Normal Mode     4        !
 --------------------------                            --------------------------
 ! Name  Definition              Value          Relative Weight (%)             !
 --------------------------------------------------------------------------------
 ! R3    R(1,7)                  0.066                   2.6                    !
 ! R4    R(1,8)                 -0.0654                  2.6                    !
 ! A2    A(2,1,7)                0.101                   4.0                    !
 ! A3    A(2,1,8)               -0.1001                  4.0                    !
 ! A4    A(6,1,7)                0.2624                 10.4                    !
 ! A5    A(6,1,8)               -0.2646                 10.5                    !
 ! A7    A(1,2,3)                0.1107                  4.4                    !
 ! A9    A(1,2,5)               -0.1117                  4.4                    !
 ! D1    D(6,1,2,3)              0.2019                  8.0                    !
 ! D2    D(6,1,2,4)              0.2921                 11.6                    !
 ! D3    D(6,1,2,5)              0.2027                  8.1                    !
 ! D4    D(7,1,2,3)             -0.145                   5.8                    !
 ! D6    D(7,1,2,5)             -0.1442                  5.7                    !
 ! D7    D(8,1,2,3)             -0.1479                  5.9                    !
 ! D9    D(8,1,2,5)             -0.1471                  5.8                    !
 --------------------------------------------------------------------------------
                           ----------------------------
                           ! Normal Mode     5        !
 --------------------------                            --------------------------
 ! Name  Definition              Value          Relative Weight (%)             !
 --------------------------------------------------------------------------------
 ! R2    R(1,6)                 -0.0759                  2.9                    !
 ! R3    R(1,7)                  0.0375                  1.4                    !
 ! R4    R(1,8)                  0.0384                  1.5                    !
 ! A1    A(2,1,6)               -0.1161                  4.5                    !
 ! A2    A(2,1,7)                0.0573                  2.2                    !
 ! A3    A(2,1,8)                0.0588                  2.3                    !
 ! A4    A(6,1,7)               -0.1541                  5.9                    !
 ! A5    A(6,1,8)               -0.1502                  5.8                    !
 ! A6    A(7,1,8)                0.3042                 11.7                    !
 ! A7    A(1,2,3)               -0.065                   2.5                    !
 ! A8    A(1,2,4)                0.1284                  4.9                    !
 ! A9    A(1,2,5)               -0.0633                  2.4                    !
 ! D1    D(6,1,2,3)             -0.0533                  2.0                    !
 ! D3    D(6,1,2,5)              0.0504                  1.9                    !
 ! D4    D(7,1,2,3)              0.1504                  5.8                    !
 ! D5    D(7,1,2,4)              0.2015                  7.7                    !
 ! D6    D(7,1,2,5)              0.2541                  9.8                    !
 ! D7    D(8,1,2,3)             -0.2519                  9.7                    !
 ! D8    D(8,1,2,4)             -0.2007                  7.7                    !
 ! D9    D(8,1,2,5)             -0.1482                  5.7                    !
 --------------------------------------------------------------------------------
                           ----------------------------
                           ! Normal Mode     6        !
 --------------------------                            --------------------------
 ! Name  Definition              Value          Relative Weight (%)             !
 --------------------------------------------------------------------------------
 ! R1    R(1,2)                  0.1188                  8.8                    !
 ! R2    R(1,6)                 -0.0996                  7.4                    !
 ! R3    R(1,7)                 -0.0996                  7.4                    !
 ! R4    R(1,8)                 -0.0996                  7.4                    !
 ! A1    A(2,1,6)                0.1681                 12.4                    !
 ! A2    A(2,1,7)                0.1681                 12.4                    !
 ! A3    A(2,1,8)                0.1681                 12.4                    !
 ! A4    A(6,1,7)               -0.1402                 10.4                    !
 ! A5    A(6,1,8)               -0.1402                 10.4                    !
 ! A6    A(7,1,8)               -0.1402                 10.4                    !
 --------------------------------------------------------------------------------
                           ----------------------------
                           ! Normal Mode     7        !
 --------------------------                            --------------------------
 ! Name  Definition              Value          Relative Weight (%)             !
 --------------------------------------------------------------------------------
 ! R1    R(1,2)                  0.3314                 19.4                    !
 ! R2    R(1,6)                  0.3783                 22.1                    !
 ! R3    R(1,7)                  0.3783                 22.1                    !
 ! R4    R(1,8)                  0.3783                 22.1                    !
 ! A1    A(2,1,6)                0.0333                  1.9                    !
 ! A2    A(2,1,7)                0.0333                  1.9                    !
 ! A3    A(2,1,8)                0.0333                  1.9                    !
 ! A4    A(6,1,7)               -0.0278                  1.6                    !
 ! A5    A(6,1,8)               -0.0278                  1.6                    !
 ! A6    A(7,1,8)               -0.0278                  1.6                    !
 --------------------------------------------------------------------------------
                           ----------------------------
                           ! Normal Mode     8        !
 --------------------------                            --------------------------
 ! Name  Definition              Value          Relative Weight (%)             !
 --------------------------------------------------------------------------------
 ! R2    R(1,6)                  0.3102                  9.1                    !
 ! R3    R(1,7)                  0.3023                  8.9                    !
 ! R4    R(1,8)                 -0.6125                 18.0                    !
 ! A3    A(2,1,8)                0.0696                  2.0                    !
 ! A4    A(6,1,7)               -0.1545                  4.5                    !
 ! A5    A(6,1,8)                0.0763                  2.2                    !
 ! A6    A(7,1,8)                0.0783                  2.3                    !
 ! A7    A(1,2,3)               -0.2938                  8.6                    !
 ! A8    A(1,2,4)                0.1487                  4.4                    !
 ! A9    A(1,2,5)                0.1451                  4.3                    !
 ! A12   A(4,2,5)                0.0562                  1.6                    !
 ! D1    D(6,1,2,3)             -0.1053                  3.1                    !
 ! D2    D(6,1,2,4)             -0.2372                  7.0                    !
 ! D4    D(7,1,2,3)              0.104                   3.1                    !
 ! D6    D(7,1,2,5)              0.2392                  7.0                    !
 ! D8    D(8,1,2,4)             -0.1338                  3.9                    !
 ! D9    D(8,1,2,5)              0.1331                  3.9                    !
 --------------------------------------------------------------------------------
                           ----------------------------
                           ! Normal Mode     9        !
 --------------------------                            --------------------------
 ! Name  Definition              Value          Relative Weight (%)             !
 --------------------------------------------------------------------------------
 ! R2    R(1,6)                  0.5281                 16.6                    !
 ! R3    R(1,7)                 -0.5327                 16.7                    !
 ! A1    A(2,1,6)               -0.06                    1.9                    !
 ! A2    A(2,1,7)                0.0605                  1.9                    !
 ! A5    A(6,1,8)               -0.1344                  4.2                    !
 ! A6    A(7,1,8)                0.1332                  4.2                    !
 ! A8    A(1,2,4)                0.2534                  8.0                    !
 ! A9    A(1,2,5)               -0.2555                  8.0                    !
 ! A10   A(3,2,4)                0.0489                  1.5                    !
 ! A11   A(3,2,5)               -0.0485                  1.5                    !
 ! D1    D(6,1,2,3)             -0.0929                  2.9                    !
 ! D2    D(6,1,2,4)              0.1393                  4.4                    !
 ! D3    D(6,1,2,5)              0.1373                  4.3                    !
 ! D4    D(7,1,2,3)             -0.0945                  3.0                    !
 ! D5    D(7,1,2,4)              0.1377                  4.3                    !
 ! D6    D(7,1,2,5)              0.1358                  4.3                    !
 ! D7    D(8,1,2,3)             -0.275                   8.6                    !
 ! D8    D(8,1,2,4)             -0.0429                  1.3                    !
 ! D9    D(8,1,2,5)             -0.0448                  1.4                    !
 --------------------------------------------------------------------------------
                           ----------------------------
                           ! Normal Mode    10        !
 --------------------------                            --------------------------
 ! Name  Definition              Value          Relative Weight (%)             !
 --------------------------------------------------------------------------------
 ! R1    R(1,2)                 -0.7812                 36.1                    !
 ! R2    R(1,6)                  0.1822                  8.4                    !
 ! R3    R(1,7)                  0.1822                  8.4                    !
 ! R4    R(1,8)                  0.1822                  8.4                    !
 ! A1    A(2,1,6)                0.1198                  5.5                    !
 ! A2    A(2,1,7)                0.1198                  5.5                    !
 ! A3    A(2,1,8)                0.1198                  5.5                    !
 ! A4    A(6,1,7)               -0.0998                  4.6                    !
 ! A5    A(6,1,8)               -0.0998                  4.6                    !
 ! A6    A(7,1,8)               -0.0998                  4.6                    !
 --------------------------------------------------------------------------------
                           ----------------------------
                           ! Normal Mode    11        !
 --------------------------                            --------------------------
 ! Name  Definition              Value          Relative Weight (%)             !
 --------------------------------------------------------------------------------
 ! R3    R(1,7)                 -0.1088                  3.6                    !
 ! R4    R(1,8)                  0.0998                  3.3                    !
 ! A2    A(2,1,7)                0.073                   2.4                    !
 ! A3    A(2,1,8)               -0.0669                  2.2                    !
 ! A4    A(6,1,7)                0.0382                  1.3                    !
 ! A5    A(6,1,8)               -0.0417                  1.4                    !
 ! A7    A(1,2,3)               -0.3784                 12.4                    !
 ! A9    A(1,2,5)                0.4128                 13.5                    !
 ! A10   A(3,2,4)               -0.0993                  3.3                    !
 ! A12   A(4,2,5)                0.091                   3.0                    !
 ! D1    D(6,1,2,3)              0.1972                  6.5                    !
 ! D2    D(6,1,2,4)             -0.2034                  6.7                    !
 ! D3    D(6,1,2,5)              0.1639                  5.4                    !
 ! D4    D(7,1,2,3)              0.1218                  4.0                    !
 ! D5    D(7,1,2,4)             -0.2789                  9.1                    !
 ! D6    D(7,1,2,5)              0.0884                  2.9                    !
 ! D7    D(8,1,2,3)              0.115                   3.8                    !
 ! D8    D(8,1,2,4)             -0.2857                  9.4                    !
 ! D9    D(8,1,2,5)              0.0816                  2.7                    !
 --------------------------------------------------------------------------------
                           ----------------------------
                           ! Normal Mode    12        !
 --------------------------                            --------------------------
 ! Name  Definition              Value          Relative Weight (%)             !
 --------------------------------------------------------------------------------
 ! R2    R(1,6)                 -0.1204                  3.9                    !
 ! R3    R(1,7)                  0.0524                  1.7                    !
 ! R4    R(1,8)                  0.068                   2.2                    !
 ! A1    A(2,1,6)                0.0808                  2.6                    !
 ! A3    A(2,1,8)               -0.0456                  1.5                    !
 ! A6    A(7,1,8)               -0.0462                  1.5                    !
 ! A7    A(1,2,3)               -0.2582                  8.3                    !
 ! A8    A(1,2,4)                0.4568                 14.7                    !
 ! A9    A(1,2,5)               -0.1986                  6.4                    !
 ! A10   A(3,2,4)                0.0478                  1.5                    !
 ! A11   A(3,2,5)               -0.1099                  3.5                    !
 ! A12   A(4,2,5)                0.0621                  2.0                    !
 ! D1    D(6,1,2,3)             -0.2081                  6.7                    !
 ! D3    D(6,1,2,5)              0.2353                  7.5                    !
 ! D4    D(7,1,2,3)             -0.2595                  8.3                    !
 ! D5    D(7,1,2,4)             -0.0668                  2.1                    !
 ! D6    D(7,1,2,5)              0.1838                  5.9                    !
 ! D7    D(8,1,2,3)             -0.1685                  5.4                    !
 ! D9    D(8,1,2,5)              0.2749                  8.8                    !
 --------------------------------------------------------------------------------
                           ----------------------------
                           ! Normal Mode    13        !
 --------------------------                            --------------------------
 ! Name  Definition              Value          Relative Weight (%)             !
 --------------------------------------------------------------------------------
 ! A7    A(1,2,3)                0.3408                 14.8                    !
 ! A8    A(1,2,4)                0.3408                 14.8                    !
 ! A9    A(1,2,5)                0.3408                 14.8                    !
 ! A10   A(3,2,4)               -0.3601                 15.6                    !
 ! A11   A(3,2,5)               -0.3602                 15.6                    !
 ! A12   A(4,2,5)               -0.3602                 15.6                    !
 --------------------------------------------------------------------------------
                           ----------------------------
                           ! Normal Mode    14        !
 --------------------------                            --------------------------
 ! Name  Definition              Value          Relative Weight (%)             !
 --------------------------------------------------------------------------------
 ! A7    A(1,2,3)               -0.1134                  2.8                    !
 ! A8    A(1,2,4)                0.1488                  3.7                    !
 ! A10   A(3,2,4)               -0.1488                  3.7                    !
 ! A11   A(3,2,5)                0.6257                 15.4                    !
 ! A12   A(4,2,5)               -0.4769                 11.7                    !
 ! D1    D(6,1,2,3)              0.2843                  7.0                    !
 ! D2    D(6,1,2,4)              0.1201                  3.0                    !
 ! D3    D(6,1,2,5)             -0.4063                  10.0                   !
 ! D4    D(7,1,2,3)              0.2871                  7.1                    !
 ! D5    D(7,1,2,4)              0.1229                  3.0                    !
 ! D6    D(7,1,2,5)             -0.4034                  9.9                    !
 ! D7    D(8,1,2,3)              0.2834                  7.0                    !
 ! D8    D(8,1,2,4)              0.1192                  2.9                    !
 ! D9    D(8,1,2,5)             -0.4072                 10.0                    !
 --------------------------------------------------------------------------------
                           ----------------------------
                           ! Normal Mode    15        !
 --------------------------                            --------------------------
 ! Name  Definition              Value          Relative Weight (%)             !
 --------------------------------------------------------------------------------
 ! A7    A(1,2,3)                0.1063                  2.6                    !
 ! A9    A(1,2,5)               -0.1514                  3.7                    !
 ! A10   A(3,2,4)               -0.6366                 15.7                    !
 ! A11   A(3,2,5)                0.1894                  4.7                    !
 ! A12   A(4,2,5)                0.4471                 11.0                    !
 ! D1    D(6,1,2,3)              0.306                   7.6                    !
 ! D2    D(6,1,2,4)             -0.3965                  9.8                    !
 ! D3    D(6,1,2,5)              0.097                   2.4                    !
 ! D4    D(7,1,2,3)              0.3034                  7.5                    !
 ! D5    D(7,1,2,4)             -0.3992                  9.9                    !
 ! D6    D(7,1,2,5)              0.0943                  2.3                    !
 ! D7    D(8,1,2,3)              0.3022                  7.5                    !
 ! D8    D(8,1,2,4)             -0.4003                  9.9                    !
 ! D9    D(8,1,2,5)              0.0931                  2.3                    !
 --------------------------------------------------------------------------------
                           ----------------------------
                           ! Normal Mode    16        !
 --------------------------                            --------------------------
 ! Name  Definition              Value          Relative Weight (%)             !
 --------------------------------------------------------------------------------
 ! R5    R(2,3)                  0.5947                 30.7                    !
 ! R6    R(2,4)                  0.5947                 30.7                    !
 ! R7    R(2,5)                  0.5946                 30.7                    !
 --------------------------------------------------------------------------------
                           ----------------------------
                           ! Normal Mode    17        !
 --------------------------                            --------------------------
 ! Name  Definition              Value          Relative Weight (%)             !
 --------------------------------------------------------------------------------
 ! R5    R(2,3)                 -0.6215                 28.2                    !
 ! R6    R(2,4)                  0.8715                 39.5                    !
 ! R7    R(2,5)                 -0.25                   11.3                    !
 ! A8    A(1,2,4)               -0.0357                  1.6                    !
 ! A11   A(3,2,5)                0.0408                  1.8                    !
 ! A12   A(4,2,5)               -0.0291                  1.3                    !
 ! D1    D(6,1,2,3)              0.0307                  1.4                    !
 ! D3    D(6,1,2,5)             -0.0446                  2.0                    !
 ! D4    D(7,1,2,3)              0.0388                  1.8                    !
 ! D6    D(7,1,2,5)             -0.0365                  1.7                    !
 ! D9    D(8,1,2,5)             -0.0479                  2.2                    !
 --------------------------------------------------------------------------------
                           ----------------------------
                           ! Normal Mode    18        !
 --------------------------                            --------------------------
 ! Name  Definition              Value          Relative Weight (%)             !
 --------------------------------------------------------------------------------
 ! R5    R(2,3)                  0.6475                 29.6                    !
 ! R6    R(2,4)                  0.2145                  9.8                    !
 ! R7    R(2,5)                 -0.862                  39.4                    !
 ! A9    A(1,2,5)                0.0353                  1.6                    !
 ! A10   A(3,2,4)               -0.0403                  1.8                    !
 ! A12   A(4,2,5)                0.0303                  1.4                    !
 ! D1    D(6,1,2,3)              0.0376                  1.7                    !
 ! D2    D(6,1,2,4)             -0.0369                  1.7                    !
 ! D4    D(7,1,2,3)              0.0291                  1.3                    !
 ! D5    D(7,1,2,4)             -0.0454                  2.1                    !
 ! D8    D(8,1,2,4)             -0.0481                  2.2                    !
 --------------------------------------------------------------------------------
 
                                                         Title Card Required
                                                             IR Spectrum
 
      3 3                                                            1   1                    1                                      
      2 2                                                            6   5                    0    8 8       6       4 3   2  1      
      8 0                                                            2   3                    0    7 2       1       0 5   4  6      
      1 9                                                            8   4                    2    3 0       6       3 7   2  4      
 
      X                                                              X   X                    X    X X       X       X X             
                                                                     X   X                    X    X X       X       X X             
                                                                     X   X                    X    X X               X X             
                                                                         X                    X    X X               X X             
                                                                         X                    X    X X               X               
                                                                         X                    X    X X               X               
                                                                                              X    X X               X               
                                                                                              X    X X                               
                                                                                              X    X X                               
                                                                                              X    X X                               
                                                                                              X    X X                               
                                                                                              X    X X                               
[...]
               11            12            13            14            15 
     11  0.319173D+00
     12 -0.649545D-01  0.696733D-01
     13  0.406571D-02 -0.141629D-01  0.963777D-01
     14 -0.907442D-02  0.326372D-01  0.301758D-01  0.757959D-01
     15  0.144223D-02 -0.758955D-02 -0.103548D+00 -0.755595D-01  0.313051D+00
     16 -0.163523D-02  0.401735D-03  0.153363D-02 -0.918082D-03  0.249898D-04
     17  0.129232D-02 -0.792330D-04  0.145171D-03 -0.114978D-03 -0.354955D-03
     18 -0.777170D-04  0.990043D-03 -0.260512D-02  0.173674D-03  0.258984D-03
     19  0.642070D-04 -0.916457D-03 -0.582813D-02  0.469714D-03 -0.161705D-02
     20  0.266448D-03  0.189303D-03 -0.662063D-03  0.997650D-03 -0.924104D-04
     21 -0.338783D-03 -0.122390D-03  0.226551D-02 -0.908967D-04  0.128471D-02
     22  0.480679D-03  0.782588D-03  0.153838D-02  0.761571D-03  0.513839D-03
     23  0.244003D-03 -0.380927D-03  0.127952D-02 -0.899091D-04  0.133047D-03
     24  0.147701D-03 -0.999810D-04 -0.227304D-02 -0.395039D-03  0.233953D-03
               16            17            18            19            20 
     16  0.677350D-01
     17 -0.625270D-01  0.224093D+00
     18  0.152769D-01 -0.433481D-01  0.572576D-01
     19  0.659085D-02  0.263859D-02 -0.382158D-02  0.677354D-01
     20 -0.393486D-02 -0.204546D-02  0.125915D-01  0.180335D-01  0.614260D-01
     21  0.246663D-02 -0.682562D-03 -0.151685D-02 -0.617890D-01 -0.505679D-01
     22  0.659085D-02  0.410354D-02  0.217435D-02  0.659086D-02  0.199031D-02
     23 -0.462892D-02 -0.680568D-02 -0.984313D-02 -0.168745D-03  0.350770D-02
     24 -0.374286D-03  0.343089D-02  0.324340D-02 -0.464096D-02 -0.938532D-02
               21            22            23            24 
     21  0.219925D+00
     22  0.419592D-02  0.677352D-01
     23  0.388867D-02  0.444938D-01  0.136507D+00
     24 -0.707000D-02  0.465117D-01  0.939158D-01  0.144844D+00
 Force constants in internal coordinates: 
                1             2             3             4             5 
      1  0.245383D+00
      2  0.295296D-02  0.255847D+00
      3  0.295293D-02 -0.284122D-03  0.255847D+00
      4  0.295295D-02 -0.284126D-03 -0.284121D-03  0.255847D+00
      5  0.160526D-02  0.498631D-03  0.499137D-03 -0.223658D-03  0.376585D+00
      6  0.160527D-02 -0.223660D-03  0.498627D-03  0.499135D-03  0.253676D-02
      7  0.160525D-02  0.499135D-03 -0.223660D-03  0.498629D-03  0.253673D-02
      8  0.850787D-02  0.193014D-01 -0.654242D-02 -0.654206D-02 -0.139597D-02
      9  0.850781D-02 -0.654208D-02  0.193013D-01 -0.654242D-02 -0.138944D-02
     10  0.850784D-02 -0.654240D-02 -0.654207D-02  0.193013D-01  0.226689D-02
     11 -0.709199D-02 -0.176380D-02 -0.176409D-02 -0.165436D-02 -0.321566D-03
     12 -0.709199D-02 -0.176413D-02 -0.165436D-02 -0.176379D-02  0.377708D-03
     13 -0.709199D-02 -0.165437D-02 -0.176378D-02 -0.176412D-02  0.376093D-03
     14  0.134015D-01 -0.895262D-03 -0.891140D-03  0.613172D-02  0.571981D-02
     15  0.134015D-01  0.613173D-02 -0.895267D-03 -0.891139D-03 -0.882207D-02
     16  0.134015D-01 -0.891133D-03  0.613172D-02 -0.895259D-03 -0.882231D-02
     17 -0.141645D-01 -0.229650D-02  0.193438D-05 -0.229815D-02  0.554720D-02
     18 -0.141645D-01  0.193211D-05 -0.229816D-02 -0.229651D-02  0.554740D-02
     19 -0.141645D-01 -0.229816D-02 -0.229650D-02  0.193169D-05  0.150890D-02
     20  0.000000D+00 -0.594175D-03  0.464910D-02 -0.405452D-02 -0.845327D-03
     21  0.000000D+00  0.000000D+00  0.345990D-02 -0.345959D-02  0.408727D-02
     22  0.000000D+00  0.595028D-03  0.405417D-02 -0.464879D-02 -0.577803D-02
     23  0.000000D+00 -0.464880D-02  0.595023D-03  0.405418D-02  0.845922D-03
     24  0.000000D+00 -0.405453D-02 -0.594179D-03  0.464911D-02  0.577852D-02
     25  0.000000D+00 -0.345960D-02  0.000000D+00  0.345990D-02 -0.408678D-02
     26  0.000000D+00  0.345991D-02 -0.345959D-02  0.000000D+00  0.000000D+00
     27  0.000000D+00  0.405418D-02 -0.464879D-02  0.595020D-03  0.493226D-02
     28  0.000000D+00  0.464911D-02 -0.405452D-02 -0.594182D-03 -0.493304D-02
                6             7             8             9            10 
      6  0.376584D+00
      7  0.253674D-02  0.376585D+00
      8  0.226690D-02 -0.138944D-02  0.140335D+00
      9 -0.139598D-02  0.226688D-02  0.160177D-01  0.140335D+00
     10 -0.138944D-02 -0.139597D-02  0.160177D-01  0.160176D-01  0.140335D+00
     11  0.377706D-03  0.376096D-03 -0.587046D-01 -0.587062D-01 -0.262741D-01
     12  0.376092D-03 -0.321565D-03 -0.587063D-01 -0.262741D-01 -0.587044D-01
     13 -0.321566D-03  0.377708D-03 -0.262742D-01 -0.587045D-01 -0.587063D-01
     14 -0.882230D-02 -0.882208D-02 -0.115835D-01 -0.115650D-01  0.265682D-01
     15  0.571983D-02 -0.882230D-02  0.265682D-01 -0.115835D-01 -0.115650D-01
     16 -0.882208D-02  0.571981D-02 -0.115650D-01  0.265682D-01 -0.115835D-01
     17  0.554741D-02  0.150889D-02 -0.456531D-02  0.552500D-02 -0.457411D-02
     18  0.150890D-02  0.554719D-02  0.552502D-02 -0.457412D-02 -0.456532D-02
     19  0.554718D-02  0.554742D-02 -0.457415D-02 -0.456528D-02  0.552501D-02
     20 -0.493306D-02  0.577850D-02 -0.423255D-02  0.116048D-01 -0.737118D-02
     21  0.000000D+00 -0.408678D-02  0.000000D+00  0.313724D-02 -0.313682D-02
     22  0.493227D-02  0.845932D-03  0.423499D-02  0.737038D-02 -0.116043D-01
     23 -0.577805D-02  0.493225D-02 -0.116044D-01  0.423498D-02  0.737040D-02
     24 -0.845314D-03 -0.493303D-02 -0.737120D-02 -0.423253D-02  0.116048D-01
     25  0.408728D-02  0.000000D+00 -0.313681D-02  0.000000D+00  0.313724D-02
     26 -0.408680D-02  0.408726D-02  0.313723D-02 -0.313683D-02  0.000000D+00
     27  0.845939D-03 -0.577802D-02  0.737038D-02 -0.116043D-01  0.423497D-02
     28  0.577853D-02 -0.845313D-03  0.116048D-01 -0.737121D-02 -0.423256D-02
               11            12            13            14            15 
     11  0.638653D-01
     12  0.279540D-01  0.638652D-01
     13  0.279540D-01  0.279540D-01  0.638653D-01
     14  0.109167D-02 -0.197007D-02 -0.197221D-02  0.998815D-01
     15 -0.197009D-02 -0.197221D-02  0.109167D-02 -0.141335D-01  0.998816D-01
     16 -0.197219D-02  0.109166D-02 -0.197007D-02 -0.141336D-01 -0.141335D-01
     17  0.103596D-02  0.939107D-03  0.103785D-02 -0.434890D-01 -0.434896D-01
     18  0.103785D-02  0.103595D-02  0.939116D-03 -0.434896D-01  0.112868D-01
     19  0.939112D-03  0.103786D-02  0.103595D-02  0.112868D-01 -0.434892D-01
     20  0.851573D-02 -0.779424D-02 -0.722343D-03 -0.487991D-02 -0.230672D-02
     21  0.923741D-02 -0.923858D-02  0.000000D+00 -0.257510D-02 -0.250766D-05
     22  0.779306D-02 -0.851592D-02  0.722007D-03 -0.718416D-02  0.230234D-02
     23 -0.851592D-02  0.722005D-03  0.779305D-02  0.488132D-02 -0.718415D-02
     24 -0.779424D-02 -0.722342D-03  0.851571D-02  0.718613D-02 -0.487994D-02
     25 -0.923859D-02  0.000000D+00  0.923740D-02  0.257707D-02 -0.257509D-02
     26  0.000000D+00  0.923741D-02 -0.923857D-02 -0.248770D-05  0.257709D-02
     27  0.722010D-03  0.779307D-02 -0.851591D-02  0.230232D-02  0.488130D-02
     28 -0.722339D-03  0.851573D-02 -0.779422D-02 -0.230673D-02  0.718615D-02
               16            17            18            19            20 
     16  0.998814D-01
     17  0.112868D-01  0.577954D-01
     18 -0.434891D-01  0.111030D-01  0.577955D-01
     19 -0.434895D-01  0.111030D-01  0.111030D-01  0.577955D-01
     20  0.718614D-02 -0.582863D-02  0.746584D-02 -0.163671D-02  0.170481D-01
     21  0.257709D-02  0.910402D-02  0.000000D+00 -0.910286D-02  0.489697D-02
     22  0.488130D-02  0.163753D-02 -0.746672D-02  0.582974D-02  0.608590D-02
     23  0.230234D-02 -0.746676D-02  0.582972D-02  0.163754D-02  0.382802D-02
     24 -0.230672D-02  0.746589D-02 -0.163672D-02 -0.582861D-02 -0.832314D-02
     25 -0.250474D-05  0.000000D+00 -0.910284D-02  0.910400D-02 -0.713422D-02
     26 -0.257508D-02 -0.910288D-02  0.910398D-02  0.000000D+00  0.263910D-02
     27 -0.718414D-02  0.582977D-02  0.163754D-02 -0.746675D-02 -0.951206D-02
     28 -0.487993D-02 -0.163672D-02 -0.582858D-02  0.746585D-02 -0.832314D-02
               21            22            23            24            25 
     21  0.146692D-01
     22  0.489641D-02  0.170470D-01
     23 -0.713310D-02 -0.832258D-02  0.170470D-01
     24  0.263911D-02 -0.951206D-02  0.608590D-02  0.170481D-01
     25 -0.713366D-02  0.263853D-02  0.489642D-02  0.489698D-02  0.146692D-01
     26 -0.713366D-02 -0.713308D-02  0.263854D-02 -0.713423D-02 -0.713365D-02
     27  0.263854D-02 -0.832257D-02 -0.832258D-02  0.382802D-02 -0.713309D-02
     28 -0.713422D-02  0.382802D-02 -0.951206D-02 -0.832315D-02  0.263910D-02
               26            27            28 
     26  0.146692D-01
     27  0.489640D-02  0.170470D-01
     28  0.489698D-02  0.608590D-02  0.170481D-01
 Leave Link  716 at Tue Feb 28 13:51:29 2017, MaxMem=   33554432 cpu:       0.0
 (Enter /share/apps/gaussian09/g09/l103.exe)

 GradGradGradGradGradGradGradGradGradGradGradGradGradGradGradGradGradGrad
 Berny optimization.
 Red2BG is reusing G-inverse.
 Internal  Forces:  Max     0.074130954 RMS     0.029376902
 Search for a local minimum.
 Step number   1 out of a maximum of    2
 All quantities printed in internal units (Hartrees-Bohrs-Radians)
 Second derivative matrix not updated -- analytic derivatives used.
 ITU=  0
     Eigenvalues ---    0.00121   0.04238   0.04238   0.06133   0.06133
     Eigenvalues ---    0.10542   0.10542   0.13930   0.17408   0.17408
     Eigenvalues ---    0.24603   0.25439   0.26469   0.26469   0.30339
     Eigenvalues ---    0.37576   0.37576   0.38297
 Quadratic step=6.023D-01 exceeds max=3.000D-01 adjusted using Lamda=-2.594D-01.
 Angle between NR and scaled steps=   1.72 degrees.
 Angle between quadratic step and forces=   1.67 degrees.
 Linear search not attempted -- first point.
 Iteration  1 RMS(Cart)=  0.08150367 RMS(Int)=  0.00436160
 Iteration  2 RMS(Cart)=  0.00558205 RMS(Int)=  0.00143505
 Iteration  3 RMS(Cart)=  0.00002638 RMS(Int)=  0.00143489
 Iteration  4 RMS(Cart)=  0.00000005 RMS(Int)=  0.00143489
 Variable       Old X    -DE/DX   Delta X   Delta X   Delta X     New X
                                 (Linear)    (Quad)   (Total)
    R1        3.50908  -0.00018   0.00000  -0.00411  -0.00411   3.50497
    R2        3.23292  -0.07413   0.00000  -0.14551  -0.14551   3.08741
    R3        3.23292  -0.07413   0.00000  -0.14551  -0.14551   3.08741
    R4        3.23292  -0.07413   0.00000  -0.14551  -0.14551   3.08741
    R5        2.04855   0.00003   0.00000   0.00035   0.00035   2.04890
    R6        2.04855   0.00003   0.00000   0.00035   0.00035   2.04890
    R7        2.04855   0.00003   0.00000   0.00035   0.00035   2.04890
    A1        1.83871   0.03886   0.00000   0.07215   0.06906   1.90778
    A2        1.83871   0.03886   0.00000   0.07215   0.06906   1.90778
    A3        1.83871   0.03886   0.00000   0.07215   0.06906   1.90778
    A4        1.97674  -0.03239   0.00000  -0.06015  -0.06326   1.91348
    A5        1.97674  -0.03239   0.00000  -0.06015  -0.06326   1.91348
    A6        1.97674  -0.03239   0.00000  -0.06015  -0.06326   1.91348
    A7        1.93842   0.00002   0.00000   0.00071   0.00071   1.93912
    A8        1.93842   0.00002   0.00000   0.00071   0.00071   1.93912
    A9        1.93842   0.00002   0.00000   0.00071   0.00071   1.93912
   A10        1.88205  -0.00002   0.00000  -0.00075  -0.00075   1.88130
   A11        1.88205  -0.00002   0.00000  -0.00075  -0.00075   1.88130
   A12        1.88205  -0.00002   0.00000  -0.00075  -0.00075   1.88130
    D1        1.04679   0.00000   0.00000   0.00000   0.00000   1.04679
    D2        3.14118   0.00000   0.00000   0.00000   0.00000   3.14118
    D3       -1.04761   0.00000   0.00000   0.00000   0.00000  -1.04761
    D4       -1.04761   0.00000   0.00000   0.00000   0.00000  -1.04760
    D5        1.04679   0.00000   0.00000   0.00000   0.00000   1.04679
    D6        3.14118   0.00000   0.00000   0.00000   0.00000   3.14118
    D7        3.14118   0.00000   0.00000   0.00000   0.00000   3.14119
    D8       -1.04761   0.00000   0.00000   0.00000   0.00000  -1.04761
    D9        1.04679   0.00000   0.00000   0.00000   0.00000   1.04679
         Item               Value     Threshold  Converged?
 Maximum Force            0.074131     0.000450     NO 
 RMS     Force            0.029377     0.000300     NO 
 Maximum Displacement     0.197994     0.001800     NO 
 RMS     Displacement     0.078875     0.001200     NO 
 Predicted change in Energy=-3.495349D-02
 GradGradGradGradGradGradGradGradGradGradGradGradGradGradGradGradGradGrad

 Leave Link  103 at Tue Feb 28 13:51:29 2017, MaxMem=   33554432 cpu:       0.0
 (Enter /share/apps/gaussian09/g09/l9999.exe)
 1\1\GINC-COMPUTE-0-8\Freq\RHF\3-21G\C1H3F3Si1\SALMAN\28-Feb-2017\0\\#p
  hf/3-21g freq=internal\\Title Card Required\\0,1\Si,-0.113064,0.,0.\C
 ,1.743863,-0.000002,0.000002\H,2.133466,0.699576,0.730726\H,2.133464,-
 0.982617,0.240495\H,2.133468,0.283032,-0.971212\F,-0.565948,1.60262,-0
 .391542\F,-0.565954,-0.462224,1.583679\F,-0.565951,-1.140394,-1.192139
 \\Version=EM64L-G09RevC.01\State=1-A\HF=-623.6970149\RMSD=3.619e-09\RM
 SF=2.718e-02\ZeroPoint=0.0488915\Thermal=0.0547933\Dipole=0.7027051,-0
 .0000016,0.0000017\DipoleDeriv=2.5061009,-0.0000009,0.0000009,-0.00000
 06,2.0310068,0.0000001,0.0000007,0.,2.0310065,-0.5923578,0.0000005,-0.
 0000005,0.,-0.4148753,-0.0000232,-0.0000001,0.0000231,-0.4148756,0.105
 7649,-0.0567108,-0.059249,-0.0406691,0.0590564,-0.0831776,-0.0424905,-
 0.0831816,0.051807,0.1057652,0.0796663,-0.0194883,0.0571324,-0.0184168
 ,0.0384531,-0.0139751,0.0384493,0.1292794,0.1057647,-0.0229559,0.07873
 76,-0.0164634,0.1256553,0.0447303,0.0564658,0.0447265,-0.0147911,-0.74
 36791,0.0639955,-0.0156448,0.1234018,-0.6187902,0.0128139,-0.0301441,0
 .0128023,-0.5694944,-0.7436795,-0.0184488,0.0632435,-0.0355951,-0.5707
 262,0.0149472,0.1219404,0.0149356,-0.6175577,-0.7436793,-0.045546,-0.0
 475994,-0.0878059,-0.5929101,-0.0277439,-0.0917971,-0.0277552,-0.59537
 42\Polar=21.9424348,0.0000042,23.6313017,-0.000002,0.0000015,23.631300
 1\PolarDeriv=-3.8603898,0.0000022,-0.9083539,-0.0000029,0.,-0.9083464,
 0.0000029,-0.1523929,-1.320183,-0.0000709,1.1560677,1.3201837,-0.00000
 33,0.0000714,1.1560656,-0.1523845,1.3201823,-1.1560656,5.2749173,-0.00
 0006,-0.9857484,0.0000072,0.0000008,-0.9857616,-0.0000159,-3.434307,2.
 1537697,0.0001081,-1.8898391,-2.1537411,0.0000145,-0.0001071,-1.889828
 3,-3.4343221,-2.1537312,1.8898013,1.6990668,1.9355044,0.8717389,2.0217
 114,0.4573819,0.9117705,1.0491263,2.1581452,3.513433,0.6971453,2.57826
 65,1.2491227,1.0959181,0.6972025,1.183255,2.2189448,2.5847746,3.791461
 1,1.699055,-2.7186038,1.2978617,0.6653418,-0.2113603,0.4856441,-1.4736
 47,2.8075081,-6.6814215,-0.3222923,1.2759819,-0.0080995,0.3606079,-0.3
 222361,0.8167711,1.5695745,-1.8840449,0.820392,1.6990786,0.7830999,0.5
 056563,-2.687054,-0.2460222,1.2778567,0.424533,1.5999745,0.9890296,-0.
 3749382,-1.9429816,0.9378967,-1.4565368,-0.3748819,-0.0887716,2.777122
 3,1.4781784,-6.5230689,-2.1705621,2.4999478,-0.7285684,-0.6107961,0.24
 32202,0.2078022,1.9522658,-1.8905361,6.9800999,0.4664122,-0.9968666,1.
 1357281,-0.477005,0.4663792,-0.7795605,-0.0954084,2.0252752,-1.2032978
 ,-2.1705894,-0.7210091,0.1843404,2.4704189,0.2838515,-0.7051192,-0.563
 0356,-0.1402874,-1.4353651,0.5441323,2.0519965,-0.9053368,1.9292209,0.
 5440997,1.1729751,-1.8456755,-1.161917,6.8469535,-2.1705764,-1.7789354
 ,-0.2369266,-1.8596262,-0.5270718,-0.2838463,-1.3892295,-0.9481043,-4.
 1993626,-1.0104966,-2.2326254,-1.5757536,-1.4522164,-1.0105278,-1.5709
 064,-1.0378511,-2.2087174,-4.4661755\HyperPolar=-23.8618012,0.0000697,
 14.6695273,-25.3486596,-0.0000779,-0.0000017,22.2127096,14.6696917,25.
 3485265,-22.2125649\PG=C01 [X(C1H3F3Si1)]\NImag=0\\0.45763657,0.000000
 02,0.47006970,-0.00000015,-0.00000015,0.47006981,-0.19789813,0.0000001
 5,-0.00000015,0.48725534,0.00000014,-0.05403405,-0.00000198,0.00000053
 ,0.59032615,-0.00000015,0.00000198,-0.05403411,-0.00000047,-0.00000003
 ,0.59032771,-0.01074544,-0.02113360,-0.02207563,-0.09412570,-0.0757142
 6,-0.07908493,0.09637725,0.00163000,-0.00015900,0.00006774,-0.06687496
 ,-0.17347957,-0.12412609,0.07458665,0.18830003,0.00170234,0.00006721,-
 0.00015288,-0.06984968,-0.12412362,-0.18429766,0.07790665,0.14051398,0
 .20054661,-0.01074541,0.02968489,-0.00726446,-0.09412526,0.10634597,-0
 .02602804,0.00562497,-0.01429836,0.00356046,0.09637682,-0.00228925,-0.
 00009602,-0.00003082,0.09392837,-0.28908796,0.05737728,0.01014723,-0.0
 2271763,0.00643465,-0.10476171,0.31917327,0.00056040,-0.00003124,-0.00
 021592,-0.02299060,0.05737982,-0.06868917,0.01068457,-0.02476039,0.006
 05363,0.02564066,-0.06495454,0.06967334,-0.01074547,-0.00855122,0.0293
 4002,-0.09412614,-0.03063242,0.10511360,0.00562503,0.00417950,-0.01413
 010,0.00562500,0.00406571,-0.01416289,0.09637770,0.00065932,-0.0002128
 2,-0.00003623,-0.02705412,-0.07409749,0.06674507,0.01023266,0.00679605
 ,-0.02347433,-0.01432686,-0.00907442,0.03263722,0.03017580,0.07579592,
 -0.00226281,-0.00003666,-0.00009899,0.09284092,0.06674760,-0.28367975,
 0.01060257,0.00772061,-0.02346003,0.00344552,0.00144223,-0.00758955,-0
 .10354798,-0.07555946,0.31305066,-0.07583384,0.05233502,-0.01278677,-0
 .00232668,0.02213488,-0.00541179,0.00153838,-0.00082578,0.00040262,-0.
 00582814,-0.00163523,0.00040174,0.00153363,-0.00091808,0.00002499,0.06
 773495,0.05416580,-0.20965662,0.03696513,-0.00214787,-0.00680250,0.003
 59902,0.00132874,0.00003954,0.00046979,0.00229304,0.00129232,-0.000079
 23,0.00014517,-0.00011498,-0.00035496,-0.06252702,0.22409338,-0.013233
 37,0.03696427,-0.06738883,0.00052362,0.00359785,0.00705110,0.00224463,
 -0.00005831,0.00010451,-0.00055939,-0.00007772,0.00099004,-0.00260512,
 0.00017367,0.00025898,0.01527687,-0.04334809,0.05725764,-0.07583425,-0
 .01509399,0.05171737,-0.00232673,-0.00638069,0.02187526,0.00153363,0.0
 0043740,-0.00080757,0.00153838,0.00006421,-0.00091646,-0.00582813,0.00
 046971,-0.00161705,0.00659085,0.00263859,-0.00382158,0.06773539,-0.015
 62261,-0.07094338,0.04312177,0.00062047,0.00670403,0.00420012,0.002183
 51,0.00008699,-0.00005705,-0.00260827,0.00026645,0.00018930,-0.0006620
 6,0.00099765,-0.00009241,-0.00393486,-0.00204546,0.01259145,0.01803352
 ,0.06142602,0.05352617,0.04312091,-0.20610185,-0.00212192,0.00419895,-
 0.00645536,0.00142828,0.00047156,0.00005702,0.00002841,-0.00033878,-0.
 00012239,0.00226551,-0.00009090,0.00128471,0.00246663,-0.00068256,-0.0
 0151685,-0.06178901,-0.05056786,0.21992471,-0.07583404,-0.03724127,-0.
 03893023,-0.00232670,-0.01575416,-0.01646349,-0.00582814,0.00116555,0.
 00121529,0.00153363,0.00048068,0.00078259,0.00153838,0.00076157,0.0005
 1384,0.00659085,0.00410354,0.00217435,0.00659086,0.00199031,0.00419592
 ,0.06773516,-0.03854342,-0.13496782,-0.08008546,0.00152742,0.00047139,
 -0.00779735,-0.00163095,0.00113358,0.00016936,-0.00232869,0.00024400,-
 0.00038093,0.00127952,-0.00008991,0.00013305,-0.00462892,-0.00680568,-
 0.00984313,-0.00016875,0.00350770,0.00388867,0.04449378,0.13650674,-0.
 04029244,-0.08008632,-0.14207724,0.00159828,-0.00779859,-0.00022277,-0
 .00170614,0.00017089,0.00114879,0.00117684,0.00014770,-0.00009998,-0.0
 0227304,-0.00039504,0.00023395,-0.00037429,0.00343089,0.00324340,-0.00
 464096,-0.00938532,-0.00707000,0.04651174,0.09391579,0.14484385\\-0.00
 024455,-0.00000006,0.00000016,0.00025725,0.00000038,-0.00000034,-0.000
 02511,-0.00001158,-0.00001307,-0.00002509,0.00001698,-0.00000330,-0.00
 002515,-0.00000569,0.00001664,0.00002107,0.07468266,-0.01824548,0.0000
 2072,-0.02154025,0.07379980,0.00002086,-0.05314245,-0.05555441\\\@


 A SCIENTIST IS SOMEONE WHOSE CURIOSITY SURVIVES
 EDUCATION'S ASSAULTS ON IT.
                          - SIR HERMANN BONDI
 Job cpu time:  0 days  0 hours  0 minutes  3.1 seconds.
 File lengths (MBytes):  RWF=      7 Int=      0 D2E=      0 Chk=      1 Scr=      1
 Normal termination of Gaussian 09 at Tue Feb 28 13:51:29 2017.
