 Entering Gaussian System, Link 0=g09
 Input=SiF3Oopt.gjf
 Output=SiF3Oopt.log
 Initial command:
 /share/apps/gaussian09/g09/l1.exe /state/partition1/96366.karakoram.cnsi.ucsb.edu/Gau-9915.inp -scrdir=/state/partition1/96366.karakoram.cnsi.ucsb.edu/
 Entering Link 1 = /share/apps/gaussian09/g09/l1.exe PID=      9916.
  
 Copyright (c) 1988,1990,1992,1993,1995,1998,2003,2009,2011,
            Gaussian, Inc.  All Rights Reserved.
  
 This is part of the Gaussian(R) 09 program.  It is based on
 the Gaussian(R) 03 system (copyright 2003, Gaussian, Inc.),
 the Gaussian(R) 98 system (copyright 1998, Gaussian, Inc.),
 the Gaussian(R) 94 system (copyright 1995, Gaussian, Inc.),
 the Gaussian 92(TM) system (copyright 1992, Gaussian, Inc.),
 the Gaussian 90(TM) system (copyright 1990, Gaussian, Inc.),
 the Gaussian 88(TM) system (copyright 1988, Gaussian, Inc.),
 the Gaussian 86(TM) system (copyright 1986, Carnegie Mellon
 University), and the Gaussian 82(TM) system (copyright 1983,
 Carnegie Mellon University). Gaussian is a federally registered
 trademark of Gaussian, Inc.
  
 This software contains proprietary and confidential information,
 including trade secrets, belonging to Gaussian, Inc.
  
 This software is provided under written license and may be
 used, copied, transmitted, or stored only in accord with that
 written license.
  
 The following legend is applicable only to US Government
 contracts under FAR:
  
                    RESTRICTED RIGHTS LEGEND
  
 Use, reproduction and disclosure by the US Government is
 subject to restrictions as set forth in subparagraphs (a)
 and (c) of the Commercial Computer Software - Restricted
 Rights clause in FAR 52.227-19.
  
 Gaussian, Inc.
 340 Quinnipiac St., Bldg. 40, Wallingford CT 06492
  
  
 ---------------------------------------------------------------
 Warning -- This program may not be used in any manner that
 competes with the business of Gaussian, Inc. or will provide
 assistance to any competitor of Gaussian, Inc.  The licensee
 of this program is prohibited from giving any competitor of
 Gaussian, Inc. access to this program.  By using this program,
 the user acknowledges that Gaussian, Inc. is engaged in the
 business of creating and licensing software in the field of
 computational chemistry and represents and warrants to the
 licensee that it is not a competitor of Gaussian, Inc. and that
 it will not use this program in any manner prohibited above.
 ---------------------------------------------------------------
  

 Cite this work as:
 Gaussian 09, Revision C.01,
 M. J. Frisch, G. W. Trucks, H. B. Schlegel, G. E. Scuseria, 
 M. A. Robb, J. R. Cheeseman, G. Scalmani, V. Barone, B. Mennucci, 
 G. A. Petersson, H. Nakatsuji, M. Caricato, X. Li, H. P. Hratchian, 
 A. F. Izmaylov, J. Bloino, G. Zheng, J. L. Sonnenberg, M. Hada, 
 M. Ehara, K. Toyota, R. Fukuda, J. Hasegawa, M. Ishida, T. Nakajima, 
 Y. Honda, O. Kitao, H. Nakai, T. Vreven, J. A. Montgomery, Jr., 
 J. E. Peralta, F. Ogliaro, M. Bearpark, J. J. Heyd, E. Brothers, 
 K. N. Kudin, V. N. Staroverov, T. Keith, R. Kobayashi, J. Normand, 
 K. Raghavachari, A. Rendell, J. C. Burant, S. S. Iyengar, J. Tomasi, 
 M. Cossi, N. Rega, J. M. Millam, M. Klene, J. E. Knox, J. B. Cross, 
 V. Bakken, C. Adamo, J. Jaramillo, R. Gomperts, R. E. Stratmann, 
 O. Yazyev, A. J. Austin, R. Cammi, C. Pomelli, J. W. Ochterski, 
 R. L. Martin, K. Morokuma, V. G. Zakrzewski, G. A. Voth, 
 P. Salvador, J. J. Dannenberg, S. Dapprich, A. D. Daniels, 
 O. Farkas, J. B. Foresman, J. V. Ortiz, J. Cioslowski, 
 and D. J. Fox, Gaussian, Inc., Wallingford CT, 2010.
 
 ******************************************
 Gaussian 09:  EM64L-G09RevC.01 23-Sep-2011
                 3-May-2017 
 ******************************************
 %nprocshared=8
 Will use up to    8 processors via shared memory.
 ------------------------------------------
 #p wb97xd/gen nosymm geom=connectivity opt
 ------------------------------------------
 1/14=-1,18=20,19=15,26=3,38=1,57=2/1,3;
 2/9=110,12=2,15=1,17=6,18=5,40=1/2;
 3/5=7,11=2,16=1,25=1,30=1,71=1,74=-58/1,2,3;
 4//1;
 5/5=2,38=5/2;
 6/7=2,8=2,9=2,10=2,28=1/1;
 7/30=1/1,2,3,16;
 1/14=-1,18=20,19=15/3(2);
 2/9=110,15=1/2;
 99//99;
 2/9=110,15=1/2;
 3/5=7,6=1,11=2,16=1,25=1,30=1,71=1,74=-58,82=7/1,2,3;
 4/5=5,16=3/1;
 5/5=2,38=5/2;
 7/30=1/1,2,3,16;
 1/14=-1,18=20,19=15/3(-5);
 2/9=110,15=1/2;
 6/7=2,8=2,9=2,10=2,19=2,28=1/1;
 99/9=1/99;
 Leave Link    1 at Wed May  3 09:58:46 2017, MaxMem=          0 cpu:       0.3
 (Enter /share/apps/gaussian09/g09/l101.exe)
 -------------------
 Title Card Required
 -------------------
 Charge =  0 Multiplicity = 2
 Symbolic Z-Matrix:
 Si                   0    -1.74268   0.39013  -1.17249 
 O                    0    -1.19794   1.14061   0.15033 
 F                    -1   -1.19543  -1.11954  -1.15177 
 F                    -1   -1.24482   1.09874  -2.53296 
 F                    -1   -3.35402   0.35186  -1.24355 
 
 NAtoms=      5 NQM=        0 NQMF=       0 NMMI=      2 NMMIF=      3
                NMic=       0 NMicF=      0.
                    Isotopes and Nuclear Properties:
 (Nuclear quadrupole moments (NQMom) in fm**2, nuclear magnetic moments (NMagM)
  in nuclear magnetons)

  Atom         1           2           3           4           5
 IAtWgt=          28          16          19          19          19
 AtmWgt=  27.9769284  15.9949146  18.9984033  18.9984033  18.9984033
 NucSpn=           0           0           1           1           1
 AtZEff=   0.0000000   0.0000000   0.0000000   0.0000000   0.0000000
 NQMom=    0.0000000   0.0000000   0.0000000   0.0000000   0.0000000
 NMagM=    0.0000000   0.0000000   2.6288670   2.6288670   2.6288670
 Leave Link  101 at Wed May  3 09:58:46 2017, MaxMem=   33554432 cpu:       1.1
 (Enter /share/apps/gaussian09/g09/l103.exe)

 GradGradGradGradGradGradGradGradGradGradGradGradGradGradGradGradGradGrad
 Berny optimization.
 Initialization pass.
                           ----------------------------
                           !    Initial Parameters    !
                           ! (Angstroms and Degrees)  !
 --------------------------                            --------------------------
 ! Name  Definition              Value          Derivative Info.                !
 --------------------------------------------------------------------------------
 ! X3    R(3,-1)                -1.1954         Frozen                          !
 ! Y3    R(3,-2)                -1.1195         Frozen                          !
 ! Z3    R(3,-3)                -1.1518         Frozen                          !
 ! X4    R(4,-1)                -1.2448         Frozen                          !
 ! Y4    R(4,-2)                 1.0987         Frozen                          !
 ! Z4    R(4,-3)                -2.533          Frozen                          !
 ! X5    R(5,-1)                -3.354          Frozen                          !
 ! Y5    R(5,-2)                 0.3519         Frozen                          !
 ! Z5    R(5,-3)                -1.2435         Frozen                          !
 ! R1    R(1,2)                  1.6155         estimate D2E/DX2                !
 ! R2    R(1,3)                  1.6059         estimate D2E/DX2                !
 ! R3    R(1,4)                  1.6127         estimate D2E/DX2                !
 ! R4    R(1,5)                  1.6134         estimate D2E/DX2                !
 ! A1    A(2,1,3)              108.1342         estimate D2E/DX2                !
 ! A2    A(2,1,4)              112.4912         estimate D2E/DX2                !
 ! A3    A(2,1,5)              112.5728         estimate D2E/DX2                !
 ! A4    A(3,1,4)              108.5866         estimate D2E/DX2                !
 ! A5    A(3,1,5)              108.5787         estimate D2E/DX2                !
 ! A6    A(4,1,5)              106.355          estimate D2E/DX2                !
 ! D1    D(2,1,4,3)            119.6456         estimate D2E/DX2                !
 ! D2    D(2,1,5,3)           -119.6911         estimate D2E/DX2                !
 ! D3    D(2,1,5,4)            123.6241         estimate D2E/DX2                !
 ! D4    D(3,1,5,4)           -116.6848         estimate D2E/DX2                !
 --------------------------------------------------------------------------------
 Trust Radius=3.00D-01 FncErr=1.00D-07 GrdErr=1.00D-06
 Number of steps in this run=     33 maximum allowed number of steps=    100.
 GradGradGradGradGradGradGradGradGradGradGradGradGradGradGradGradGradGrad

 Leave Link  103 at Wed May  3 09:58:46 2017, MaxMem=   33554432 cpu:       0.1
 (Enter /share/apps/gaussian09/g09/l202.exe)
                          Input orientation:                          
 ---------------------------------------------------------------------
 Center     Atomic      Atomic             Coordinates (Angstroms)
 Number     Number       Type             X           Y           Z
 ---------------------------------------------------------------------
      1         14           0       -1.742675    0.390126   -1.172487
      2          8           0       -1.197940    1.140612    0.150326
      3          9           0       -1.195433   -1.119540   -1.151769
      4          9           0       -1.244818    1.098738   -2.532962
      5          9           0       -3.354018    0.351855   -1.243545
 ---------------------------------------------------------------------
                    Distance matrix (angstroms):
                    1          2          3          4          5
     1  Si   0.000000
     2  O    1.615487   0.000000
     3  F    1.605925   2.608399   0.000000
     4  F    1.612726   2.684024   2.613597   0.000000
     5  F    1.613363   2.685831   2.613985   2.582471   0.000000
 Symmetry turned off by external request.
 Stoichiometry    F3OSi(2)
 Framework group  C1[X(F3OSi)]
 Deg. of freedom     9
 Full point group                 C1      NOp   1
 Rotational constants (GHZ):      4.1294232      4.0191739      3.8857191
 Leave Link  202 at Wed May  3 09:58:46 2017, MaxMem=   33554432 cpu:       0.0
 (Enter /share/apps/gaussian09/g09/l301.exe)
 General basis read from cards:  (5D, 7F)
 Centers:   1  2
 TZVP
 ****
 Centers:   3  4  5
 6-31G
 ****
 Ernie: Thresh=  0.10000D-02 Tol=  0.10000D-05 Strict=F.
 Integral buffers will be    131072 words long.
 Raffenetti 2 integral format.
 Two-electron integral symmetry is turned off.
    68 basis functions,   148 primitive gaussians,    70 cartesian basis functions
    25 alpha electrons       24 beta electrons
       nuclear repulsion energy       253.2614871620 Hartrees.
 IExCor= 4639 DFT=T Ex+Corr=wB97XD ExCW=0 ScaHFX=  1.000000
 ScaDFX=  1.000000  1.000000  1.000000  1.000000 ScalE2=  1.000000  1.000000
 IRadAn=      0 IRanWt=     -1 IRanGd=            0 ICorTp=0
  HFx wShort=  0.000000 wLong=  0.200000 cFull=  0.222036 cShort=  0.000000 cLong=  0.777964
  DFx wShort=  0.000000 wLong=  0.200000 cFull=  0.000000 cShort=  0.000000 cLong=  1.000000
 NAtoms=    5 NActive=    5 NUniq=    5 SFac= 1.00D+00 NAtFMM=   60 NAOKFM=F Big=F
 R6Disp: Dispersion energy =        -0.0008375539 Hartrees.
 Nuclear repulsion after empirical dispersion term =      253.2606496081 Hartrees.
 Leave Link  301 at Wed May  3 09:58:46 2017, MaxMem=   33554432 cpu:       0.6
 (Enter /share/apps/gaussian09/g09/l302.exe)
 NPDir=0 NMtPBC=     1 NCelOv=     1 NCel=       1 NClECP=     1 NCelD=      1
         NCelK=      1 NCelE2=     1 NClLst=     1 CellRange=     0.0.
 One-electron integrals computed using PRISM.
 NBasis=    68 RedAO= T  NBF=    68
 NBsUse=    68 1.00D-06 NBFU=    68
 Precomputing XC quadrature grid using
 IXCGrd= 2 IRadAn=           0 IRanWt=          -1 IRanGd=           0 AccXCQ= 0.00D+00.
 NRdTot=     316 NPtTot=       39840 NUsed=       42130 NTot=       42162
 NSgBfM=    69    69    69    69    69 NAtAll=     5     5.
 Leave Link  302 at Wed May  3 09:58:46 2017, MaxMem=   33554432 cpu:       1.6
 (Enter /share/apps/gaussian09/g09/l303.exe)
 DipDrv:  MaxL=1.
 Leave Link  303 at Wed May  3 09:58:46 2017, MaxMem=   33554432 cpu:       0.4
 (Enter /share/apps/gaussian09/g09/l401.exe)
 Harris functional with IExCor= 4639 diagonalized for initial guess.
 ExpMin= 7.01D-02 ExpMax= 4.48D+04 ExpMxC= 1.53D+03 IAcc=2 IRadAn=         4 AccDes= 0.00D+00
 HarFok:  IExCor= 4639 AccDes= 0.00D+00 IRadAn=         4 IDoV= 1
 ScaDFX=  1.000000  1.000000  1.000000  1.000000
 FoFCou: FMM=F IPFlag=           0 FMFlag=      100000 FMFlg1=           0
         NFxFlg=           0 DoJE=T BraDBF=F KetDBF=T FulRan=T
         Omega=  0.000000  0.000000  1.000000  0.000000  0.000000 ICntrl=     500 IOpCl=  0
         NMat0=    1 NMatS0=    1 NMatT0=    0 NMatD0=    1 NMtDS0=    0 NMtDT0=    0
         I1Cent=           4 NGrid=           0.
 Symmetry not used in FoFCou.
 Harris En= -646.991118176609    
 Initial guess <Sx>= 0.0000 <Sy>= 0.0000 <Sz>= 0.5000 <S**2>= 0.7500 S= 0.5000
 Leave Link  401 at Wed May  3 09:58:47 2017, MaxMem=   33554432 cpu:       2.2
 (Enter /share/apps/gaussian09/g09/l502.exe)
 UHF open shell SCF:
 Requested convergence on RMS density matrix=1.00D-08 within 128 cycles.
 Requested convergence on MAX density matrix=1.00D-06.
 Requested convergence on             energy=1.00D-06.
 No special actions if energy rises.
 Using DIIS extrapolation, IDIIS=  1040.
 Two-electron integral symmetry not used.
        42072 words used for storage of precomputed grid.
 IEnd=       75908 IEndB=       75908 NGot=    33554432 MDV=    33500135
 LenX=    33500135 LenY=    33494794
 Fock matrices will be formed incrementally for  20 cycles.
 Integral accuracy reduced to 1.0D-05 until final iterations.

 Cycle   1  Pass 0  IDiag  1:
 FoFJK:  IHMeth= 1 ICntrl=     0 DoSepK=T KAlg= 1 I1Cent= 0 FoldK=F
 FoFCou: FMM=F IPFlag=           0 FMFlag=      100000 FMFlg1=           0
         NFxFlg=           0 DoJE=T BraDBF=F KetDBF=F FulRan=T
         Omega=  0.000000  0.000000  1.000000  0.000000  0.000000 ICntrl=     500 IOpCl=  0
         NMat0=    1 NMatS0=    1 NMatT0=    0 NMatD0=    1 NMtDS0=    0 NMtDT0=    0
         I1Cent=           0 NGrid=           0.
 Symmetry not used in FoFCou.
 E= -663.980480803160    
 DIIS: error= 9.08D-02 at cycle   1 NSaved=   1.
 NSaved= 1 IEnMin= 1 EnMin= -663.980480803160     IErMin= 1 ErrMin= 9.08D-02
 ErrMax= 9.08D-02 EMaxC= 1.00D-01 BMatC= 2.91D+00 BMatP= 2.91D+00
 IDIUse=3 WtCom= 9.25D-02 WtEn= 9.08D-01
 Coeff-Com:  0.100D+01
 Coeff-En:   0.100D+01
 Coeff:      0.100D+01
 Gap=     0.640 Goal=   None    Shift=    0.000
 Gap=     0.245 Goal=   None    Shift=    0.000
 GapD=    0.245 DampG=1.000 DampE=0.500 DampFc=0.5000 IDamp=-1.
 Damping current iteration by 5.00D-01
 RMSDP=9.29D-03 MaxDP=1.39D-01              OVMax= 2.19D-01

 Cycle   2  Pass 0  IDiag  1:
 RMSU=  3.26D-03    CP:  1.00D+00
 FoFJK:  IHMeth= 1 ICntrl=     0 DoSepK=T KAlg= 1 I1Cent= 0 FoldK=F
 E= -664.115647139244     Delta-E=       -0.135166336084 Rises=F Damp=T
 DIIS: error= 3.55D-02 at cycle   2 NSaved=   2.
 NSaved= 2 IEnMin= 2 EnMin= -664.115647139244     IErMin= 2 ErrMin= 3.55D-02
 ErrMax= 3.55D-02 EMaxC= 1.00D-01 BMatC= 3.58D-01 BMatP= 2.91D+00
 IDIUse=3 WtCom= 6.45D-01 WtEn= 3.55D-01
 Coeff-Com: -0.294D+00 0.129D+01
 Coeff-En:   0.000D+00 0.100D+01
 Coeff:     -0.190D+00 0.119D+01
 Gap=     0.587 Goal=   None    Shift=    0.000
 Gap=     0.286 Goal=   None    Shift=    0.000
 RMSDP=3.50D-03 MaxDP=8.99D-02 DE=-1.35D-01 OVMax= 6.63D-02

 Cycle   3  Pass 0  IDiag  1:
 RMSU=  2.18D-03    CP:  1.01D+00  1.35D+00
 FoFJK:  IHMeth= 1 ICntrl=     0 DoSepK=T KAlg= 1 I1Cent= 0 FoldK=F
 E= -664.238927812956     Delta-E=       -0.123280673712 Rises=F Damp=F
 DIIS: error= 1.37D-02 at cycle   3 NSaved=   3.
 NSaved= 3 IEnMin= 3 EnMin= -664.238927812956     IErMin= 3 ErrMin= 1.37D-02
 ErrMax= 1.37D-02 EMaxC= 1.00D-01 BMatC= 6.23D-02 BMatP= 3.58D-01
 IDIUse=3 WtCom= 8.63D-01 WtEn= 1.37D-01
 Coeff-Com: -0.145D+00 0.459D+00 0.686D+00
 Coeff-En:   0.000D+00 0.000D+00 0.100D+01
 Coeff:     -0.125D+00 0.396D+00 0.730D+00
 Gap=     0.572 Goal=   None    Shift=    0.000
 Gap=     0.293 Goal=   None    Shift=    0.000
 RMSDP=1.39D-03 MaxDP=3.28D-02 DE=-1.23D-01 OVMax= 6.49D-02

 Cycle   4  Pass 0  IDiag  1:
 RMSU=  4.81D-04    CP:  1.01D+00  1.45D+00  6.92D-01
 FoFJK:  IHMeth= 1 ICntrl=     0 DoSepK=T KAlg= 1 I1Cent= 0 FoldK=F
 E= -664.249295242637     Delta-E=       -0.010367429681 Rises=F Damp=F
 DIIS: error= 4.57D-03 at cycle   4 NSaved=   4.
 NSaved= 4 IEnMin= 4 EnMin= -664.249295242637     IErMin= 4 ErrMin= 4.57D-03
 ErrMax= 4.57D-03 EMaxC= 1.00D-01 BMatC= 6.78D-03 BMatP= 6.23D-02
 IDIUse=3 WtCom= 9.54D-01 WtEn= 4.57D-02
 Coeff-Com:  0.475D-02-0.942D-02 0.220D+00 0.785D+00
 Coeff-En:   0.000D+00 0.000D+00 0.000D+00 0.100D+01
 Coeff:      0.453D-02-0.899D-02 0.210D+00 0.794D+00
 Gap=     0.581 Goal=   None    Shift=    0.000
 Gap=     0.298 Goal=   None    Shift=    0.000
 RMSDP=4.47D-04 MaxDP=6.82D-03 DE=-1.04D-02 OVMax= 1.94D-02

 Cycle   5  Pass 0  IDiag  1:
 RMSU=  2.24D-04    CP:  1.01D+00  1.44D+00  7.97D-01  1.09D+00
 FoFJK:  IHMeth= 1 ICntrl=     0 DoSepK=T KAlg= 1 I1Cent= 0 FoldK=F
 E= -664.250811658157     Delta-E=       -0.001516415520 Rises=F Damp=F
 DIIS: error= 2.99D-03 at cycle   5 NSaved=   5.
 NSaved= 5 IEnMin= 5 EnMin= -664.250811658157     IErMin= 5 ErrMin= 2.99D-03
 ErrMax= 2.99D-03 EMaxC= 1.00D-01 BMatC= 7.24D-04 BMatP= 6.78D-03
 IDIUse=3 WtCom= 9.70D-01 WtEn= 2.99D-02
 Coeff-Com:  0.209D-01-0.589D-01 0.122D-01 0.329D+00 0.696D+00
 Coeff-En:   0.000D+00 0.000D+00 0.000D+00 0.000D+00 0.100D+01
 Coeff:      0.202D-01-0.571D-01 0.118D-01 0.320D+00 0.706D+00
 Gap=     0.577 Goal=   None    Shift=    0.000
 Gap=     0.300 Goal=   None    Shift=    0.000
 RMSDP=1.88D-04 MaxDP=2.92D-03 DE=-1.52D-03 OVMax= 1.68D-02

 Cycle   6  Pass 0  IDiag  1:
 RMSU=  7.45D-05    CP:  1.01D+00  1.45D+00  8.18D-01  1.21D+00  9.71D-01
 FoFJK:  IHMeth= 1 ICntrl=     0 DoSepK=T KAlg= 1 I1Cent= 0 FoldK=F
 E= -664.251118058917     Delta-E=       -0.000306400760 Rises=F Damp=F
 DIIS: error= 1.36D-03 at cycle   6 NSaved=   6.
 NSaved= 6 IEnMin= 6 EnMin= -664.251118058917     IErMin= 6 ErrMin= 1.36D-03
 ErrMax= 1.36D-03 EMaxC= 1.00D-01 BMatC= 7.31D-05 BMatP= 7.24D-04
 IDIUse=3 WtCom= 9.86D-01 WtEn= 1.36D-02
 Coeff-Com:  0.274D-03-0.107D-02-0.514D-01-0.193D+00-0.872D-02 0.125D+01
 Coeff-En:   0.000D+00 0.000D+00 0.000D+00 0.000D+00 0.000D+00 0.100D+01
 Coeff:      0.270D-03-0.105D-02-0.507D-01-0.190D+00-0.860D-02 0.125D+01
 Gap=     0.578 Goal=   None    Shift=    0.000
 Gap=     0.302 Goal=   None    Shift=    0.000
 RMSDP=1.62D-04 MaxDP=2.57D-03 DE=-3.06D-04 OVMax= 1.56D-02

 Cycle   7  Pass 0  IDiag  1:
 RMSU=  2.28D-05    CP:  1.01D+00  1.45D+00  8.32D-01  1.33D+00  1.27D+00
                    CP:  1.55D+00
 FoFJK:  IHMeth= 1 ICntrl=     0 DoSepK=T KAlg= 1 I1Cent= 0 FoldK=F
 E= -664.251216364630     Delta-E=       -0.000098305713 Rises=F Damp=F
 DIIS: error= 2.93D-04 at cycle   7 NSaved=   7.
 NSaved= 7 IEnMin= 7 EnMin= -664.251216364630     IErMin= 7 ErrMin= 2.93D-04
 ErrMax= 2.93D-04 EMaxC= 1.00D-01 BMatC= 7.24D-06 BMatP= 7.31D-05
 IDIUse=3 WtCom= 9.97D-01 WtEn= 2.93D-03
 Coeff-Com: -0.134D-02 0.351D-02-0.137D-01-0.666D-01-0.292D-01 0.313D+00
 Coeff-Com:  0.795D+00
 Coeff-En:   0.000D+00 0.000D+00 0.000D+00 0.000D+00 0.000D+00 0.000D+00
 Coeff-En:   0.100D+01
 Coeff:     -0.133D-02 0.350D-02-0.137D-01-0.664D-01-0.291D-01 0.312D+00
 Coeff:      0.795D+00
 Gap=     0.578 Goal=   None    Shift=    0.000
 Gap=     0.302 Goal=   None    Shift=    0.000
 RMSDP=2.71D-05 MaxDP=6.15D-04 DE=-9.83D-05 OVMax= 2.29D-03

 Cycle   8  Pass 0  IDiag  1:
 RMSU=  1.03D-05    CP:  1.01D+00  1.45D+00  8.33D-01  1.34D+00  1.31D+00
                    CP:  1.67D+00  1.04D+00
 FoFJK:  IHMeth= 1 ICntrl=     0 DoSepK=T KAlg= 1 I1Cent= 0 FoldK=F
 E= -664.251220216193     Delta-E=       -0.000003851563 Rises=F Damp=F
 DIIS: error= 9.88D-05 at cycle   8 NSaved=   8.
 NSaved= 8 IEnMin= 8 EnMin= -664.251220216193     IErMin= 8 ErrMin= 9.88D-05
 ErrMax= 9.88D-05 EMaxC= 1.00D-01 BMatC= 2.83D-06 BMatP= 7.24D-06
 IDIUse=1 WtCom= 1.00D+00 WtEn= 0.00D+00
 Coeff-Com: -0.931D-03 0.253D-02 0.834D-02 0.224D-01-0.614D-02-0.237D+00
 Coeff-Com:  0.383D+00 0.828D+00
 Coeff:     -0.931D-03 0.253D-02 0.834D-02 0.224D-01-0.614D-02-0.237D+00
 Coeff:      0.383D+00 0.828D+00
 Gap=     0.578 Goal=   None    Shift=    0.000
 Gap=     0.302 Goal=   None    Shift=    0.000
 RMSDP=1.70D-05 MaxDP=2.39D-04 DE=-3.85D-06 OVMax= 1.41D-03

 Cycle   9  Pass 0  IDiag  1:
 RMSU=  3.36D-06    CP:  1.01D+00  1.45D+00  8.33D-01  1.34D+00  1.33D+00
                    CP:  1.74D+00  1.31D+00  9.99D-01
 FoFJK:  IHMeth= 1 ICntrl=     0 DoSepK=T KAlg= 1 I1Cent= 0 FoldK=F
 E= -664.251221378122     Delta-E=       -0.000001161928 Rises=F Damp=F
 DIIS: error= 2.43D-05 at cycle   9 NSaved=   9.
 NSaved= 9 IEnMin= 9 EnMin= -664.251221378122     IErMin= 9 ErrMin= 2.43D-05
 ErrMax= 2.43D-05 EMaxC= 1.00D-01 BMatC= 8.38D-08 BMatP= 2.83D-06
 IDIUse=1 WtCom= 1.00D+00 WtEn= 0.00D+00
 Coeff-Com:  0.153D-03-0.386D-03 0.315D-03 0.155D-02 0.519D-02-0.972D-02
 Coeff-Com: -0.633D-01-0.603D-01 0.113D+01
 Coeff:      0.153D-03-0.386D-03 0.315D-03 0.155D-02 0.519D-02-0.972D-02
 Coeff:     -0.633D-01-0.603D-01 0.113D+01
 Gap=     0.578 Goal=   None    Shift=    0.000
 Gap=     0.302 Goal=   None    Shift=    0.000
 RMSDP=4.34D-06 MaxDP=5.29D-05 DE=-1.16D-06 OVMax= 2.96D-04

 Initial convergence to 1.0D-05 achieved.  Increase integral accuracy.
 Cycle  10  Pass 1  IDiag  1:
 FoFJK:  IHMeth= 1 ICntrl=     0 DoSepK=T KAlg= 1 I1Cent= 0 FoldK=F
 E= -664.251211760806     Delta-E=        0.000009617316 Rises=F Damp=F
 DIIS: error= 5.67D-05 at cycle   1 NSaved=   1.
 NSaved= 1 IEnMin= 1 EnMin= -664.251211760806     IErMin= 1 ErrMin= 5.67D-05
 ErrMax= 5.67D-05 EMaxC= 1.00D-01 BMatC= 2.22D-06 BMatP= 2.22D-06
 IDIUse=1 WtCom= 1.00D+00 WtEn= 0.00D+00
 Coeff-Com:  0.100D+01
 Coeff:      0.100D+01
 Gap=     0.578 Goal=   None    Shift=    0.000
 Gap=     0.302 Goal=   None    Shift=    0.000
 RMSDP=4.34D-06 MaxDP=5.29D-05 DE= 9.62D-06 OVMax= 2.07D-04

 Cycle  11  Pass 1  IDiag  1:
 RMSU=  1.18D-05    CP:  1.00D+00
 FoFJK:  IHMeth= 1 ICntrl=     0 DoSepK=T KAlg= 1 I1Cent= 0 FoldK=F
 E= -664.251212279979     Delta-E=       -0.000000519174 Rises=F Damp=F
 DIIS: error= 2.17D-05 at cycle   2 NSaved=   2.
 NSaved= 2 IEnMin= 2 EnMin= -664.251212279979     IErMin= 2 ErrMin= 2.17D-05
 ErrMax= 2.17D-05 EMaxC= 1.00D-01 BMatC= 2.07D-07 BMatP= 2.22D-06
 IDIUse=1 WtCom= 1.00D+00 WtEn= 0.00D+00
 Coeff-Com:  0.675D-01 0.933D+00
 Coeff:      0.675D-01 0.933D+00
 Gap=     0.578 Goal=   None    Shift=    0.000
 Gap=     0.302 Goal=   None    Shift=    0.000
 RMSDP=4.19D-06 MaxDP=9.00D-05 DE=-5.19D-07 OVMax= 1.04D-04

 Cycle  12  Pass 1  IDiag  1:
 RMSU=  2.92D-06    CP:  1.00D+00  9.78D-01
 FoFJK:  IHMeth= 1 ICntrl=     0 DoSepK=T KAlg= 1 I1Cent= 0 FoldK=F
 E= -664.251212310427     Delta-E=       -0.000000030448 Rises=F Damp=F
 DIIS: error= 2.36D-05 at cycle   3 NSaved=   3.
 NSaved= 3 IEnMin= 3 EnMin= -664.251212310427     IErMin= 2 ErrMin= 2.17D-05
 ErrMax= 2.36D-05 EMaxC= 1.00D-01 BMatC= 1.69D-07 BMatP= 2.07D-07
 IDIUse=1 WtCom= 1.00D+00 WtEn= 0.00D+00
 Coeff-Com: -0.459D-01 0.486D+00 0.560D+00
 Coeff:     -0.459D-01 0.486D+00 0.560D+00
 Gap=     0.578 Goal=   None    Shift=    0.000
 Gap=     0.302 Goal=   None    Shift=    0.000
 RMSDP=1.81D-06 MaxDP=4.00D-05 DE=-3.04D-08 OVMax= 6.63D-05

 Cycle  13  Pass 1  IDiag  1:
 RMSU=  6.96D-07    CP:  1.00D+00  1.05D+00  7.98D-01
 FoFJK:  IHMeth= 1 ICntrl=     0 DoSepK=T KAlg= 1 I1Cent= 0 FoldK=F
 E= -664.251212340868     Delta-E=       -0.000000030441 Rises=F Damp=F
 DIIS: error= 7.23D-06 at cycle   4 NSaved=   4.
 NSaved= 4 IEnMin= 4 EnMin= -664.251212340868     IErMin= 4 ErrMin= 7.23D-06
 ErrMax= 7.23D-06 EMaxC= 1.00D-01 BMatC= 4.19D-09 BMatP= 1.69D-07
 IDIUse=1 WtCom= 1.00D+00 WtEn= 0.00D+00
 Coeff-Com: -0.111D-01 0.101D-01 0.348D-01 0.966D+00
 Coeff:     -0.111D-01 0.101D-01 0.348D-01 0.966D+00
 Gap=     0.578 Goal=   None    Shift=    0.000
 Gap=     0.302 Goal=   None    Shift=    0.000
 RMSDP=8.31D-07 MaxDP=1.29D-05 DE=-3.04D-08 OVMax= 7.91D-05

 Cycle  14  Pass 1  IDiag  1:
 RMSU=  3.18D-07    CP:  1.00D+00  1.07D+00  8.54D-01  1.33D+00
 FoFJK:  IHMeth= 1 ICntrl=     0 DoSepK=T KAlg= 1 I1Cent= 0 FoldK=F
 E= -664.251212346669     Delta-E=       -0.000000005801 Rises=F Damp=F
 DIIS: error= 5.99D-06 at cycle   5 NSaved=   5.
 NSaved= 5 IEnMin= 5 EnMin= -664.251212346669     IErMin= 5 ErrMin= 5.99D-06
 ErrMax= 5.99D-06 EMaxC= 1.00D-01 BMatC= 2.44D-09 BMatP= 4.19D-09
 IDIUse=1 WtCom= 1.00D+00 WtEn= 0.00D+00
 Coeff-Com:  0.383D-02-0.734D-01-0.777D-01 0.264D+00 0.884D+00
 Coeff:      0.383D-02-0.734D-01-0.777D-01 0.264D+00 0.884D+00
 Gap=     0.578 Goal=   None    Shift=    0.000
 Gap=     0.302 Goal=   None    Shift=    0.000
 RMSDP=6.48D-07 MaxDP=9.77D-06 DE=-5.80D-09 OVMax= 7.02D-05

 Cycle  15  Pass 1  IDiag  1:
 RMSU=  2.01D-07    CP:  1.00D+00  1.07D+00  8.97D-01  1.67D+00  1.59D+00
 FoFJK:  IHMeth= 1 ICntrl=     0 DoSepK=T KAlg= 1 I1Cent= 0 FoldK=F
 E= -664.251212350577     Delta-E=       -0.000000003908 Rises=F Damp=F
 DIIS: error= 4.63D-06 at cycle   6 NSaved=   6.
 NSaved= 6 IEnMin= 6 EnMin= -664.251212350577     IErMin= 6 ErrMin= 4.63D-06
 ErrMax= 4.63D-06 EMaxC= 1.00D-01 BMatC= 1.37D-09 BMatP= 2.44D-09
 IDIUse=1 WtCom= 1.00D+00 WtEn= 0.00D+00
 Coeff-Com:  0.658D-02-0.269D-01-0.266D-01-0.529D+00 0.857D-01 0.149D+01
 Coeff:      0.658D-02-0.269D-01-0.266D-01-0.529D+00 0.857D-01 0.149D+01
 Gap=     0.578 Goal=   None    Shift=    0.000
 Gap=     0.302 Goal=   None    Shift=    0.000
 RMSDP=1.07D-06 MaxDP=1.77D-05 DE=-3.91D-09 OVMax= 1.18D-04

 Cycle  16  Pass 1  IDiag  1:
 RMSU=  1.37D-07    CP:  1.00D+00  1.08D+00  9.63D-01  2.16D+00  2.83D+00
                    CP:  2.21D+00
 FoFJK:  IHMeth= 1 ICntrl=     0 DoSepK=T KAlg= 1 I1Cent= 0 FoldK=F
 E= -664.251212355115     Delta-E=       -0.000000004538 Rises=F Damp=F
 DIIS: error= 2.59D-06 at cycle   7 NSaved=   7.
 NSaved= 7 IEnMin= 7 EnMin= -664.251212355115     IErMin= 7 ErrMin= 2.59D-06
 ErrMax= 2.59D-06 EMaxC= 1.00D-01 BMatC= 4.32D-10 BMatP= 1.37D-09
 IDIUse=1 WtCom= 1.00D+00 WtEn= 0.00D+00
 Coeff-Com: -0.164D-02 0.408D-01 0.507D-01-0.166D+00-0.543D+00-0.244D-01
 Coeff-Com:  0.164D+01
 Coeff:     -0.164D-02 0.408D-01 0.507D-01-0.166D+00-0.543D+00-0.244D-01
 Coeff:      0.164D+01
 Gap=     0.578 Goal=   None    Shift=    0.000
 Gap=     0.302 Goal=   None    Shift=    0.000
 RMSDP=1.11D-06 MaxDP=1.81D-05 DE=-4.54D-09 OVMax= 1.22D-04

 Cycle  17  Pass 1  IDiag  1:
 RMSU=  3.23D-07    CP:  1.00D+00  1.08D+00  1.02D+00  2.63D+00  3.00D+00
                    CP:  3.00D+00  2.05D+00
 FoFJK:  IHMeth= 1 ICntrl=     0 DoSepK=T KAlg= 1 I1Cent= 0 FoldK=F
 E= -664.251212357177     Delta-E=       -0.000000002062 Rises=F Damp=F
 DIIS: error= 7.42D-07 at cycle   8 NSaved=   8.
 NSaved= 8 IEnMin= 8 EnMin= -664.251212357177     IErMin= 8 ErrMin= 7.42D-07
 ErrMax= 7.42D-07 EMaxC= 1.00D-01 BMatC= 6.64D-11 BMatP= 4.32D-10
 IDIUse=1 WtCom= 1.00D+00 WtEn= 0.00D+00
 Coeff-Com: -0.112D-02 0.155D-01 0.172D-01 0.127D-01-0.164D+00-0.197D+00
 Coeff-Com:  0.479D+00 0.838D+00
 Coeff:     -0.112D-02 0.155D-01 0.172D-01 0.127D-01-0.164D+00-0.197D+00
 Coeff:      0.479D+00 0.838D+00
 Gap=     0.578 Goal=   None    Shift=    0.000
 Gap=     0.302 Goal=   None    Shift=    0.000
 RMSDP=2.06D-07 MaxDP=3.68D-06 DE=-2.06D-09 OVMax= 2.03D-05

 Cycle  18  Pass 1  IDiag  1:
 RMSU=  4.37D-08    CP:  1.00D+00  1.09D+00  1.03D+00  2.70D+00  3.00D+00
                    CP:  3.00D+00  2.37D+00  1.22D+00
 FoFJK:  IHMeth= 1 ICntrl=     0 DoSepK=T KAlg= 1 I1Cent= 0 FoldK=F
 E= -664.251212357299     Delta-E=       -0.000000000122 Rises=F Damp=F
 DIIS: error= 7.36D-07 at cycle   9 NSaved=   9.
 NSaved= 9 IEnMin= 9 EnMin= -664.251212357299     IErMin= 9 ErrMin= 7.36D-07
 ErrMax= 7.36D-07 EMaxC= 1.00D-01 BMatC= 3.04D-11 BMatP= 6.64D-11
 IDIUse=1 WtCom= 1.00D+00 WtEn= 0.00D+00
 Coeff-Com: -0.317D-03-0.118D-02-0.258D-02 0.408D-01 0.431D-01-0.804D-01
 Coeff-Com: -0.143D+00 0.386D+00 0.758D+00
 Coeff:     -0.317D-03-0.118D-02-0.258D-02 0.408D-01 0.431D-01-0.804D-01
 Coeff:     -0.143D+00 0.386D+00 0.758D+00
 Gap=     0.578 Goal=   None    Shift=    0.000
 Gap=     0.302 Goal=   None    Shift=    0.000
 RMSDP=8.01D-08 MaxDP=1.56D-06 DE=-1.22D-10 OVMax= 8.55D-06

 Cycle  19  Pass 1  IDiag  1:
 RMSU=  2.27D-08    CP:  1.00D+00  1.09D+00  1.03D+00  2.72D+00  3.00D+00
                    CP:  3.00D+00  2.49D+00  1.28D+00  1.52D+00
 FoFJK:  IHMeth= 1 ICntrl=     0 DoSepK=T KAlg= 1 I1Cent= 0 FoldK=F
 E= -664.251212357352     Delta-E=       -0.000000000053 Rises=F Damp=F
 DIIS: error= 7.31D-07 at cycle  10 NSaved=  10.
 NSaved=10 IEnMin=10 EnMin= -664.251212357352     IErMin=10 ErrMin= 7.31D-07
 ErrMax= 7.31D-07 EMaxC= 1.00D-01 BMatC= 1.72D-11 BMatP= 3.04D-11
 IDIUse=1 WtCom= 1.00D+00 WtEn= 0.00D+00
 Coeff-Com:  0.244D-03-0.162D-02-0.110D-02-0.104D-01 0.345D-02 0.400D-01
 Coeff-Com: -0.453D-02-0.198D+00-0.222D+00 0.139D+01
 Coeff:      0.244D-03-0.162D-02-0.110D-02-0.104D-01 0.345D-02 0.400D-01
 Coeff:     -0.453D-02-0.198D+00-0.222D+00 0.139D+01
 Gap=     0.578 Goal=   None    Shift=    0.000
 Gap=     0.302 Goal=   None    Shift=    0.000
 RMSDP=9.37D-08 MaxDP=2.09D-06 DE=-5.34D-11 OVMax= 1.24D-05

 Cycle  20  Pass 1  IDiag  1:
 RMSU=  1.86D-08    CP:  1.00D+00  1.09D+00  1.03D+00  2.72D+00  3.00D+00
                    CP:  3.00D+00  2.58D+00  1.31D+00  2.39D+00  2.37D+00
 FoFJK:  IHMeth= 1 ICntrl=     0 DoSepK=T KAlg= 1 I1Cent= 0 FoldK=F
 E= -664.251212357421     Delta-E=       -0.000000000069 Rises=F Damp=F
 DIIS: error= 7.25D-07 at cycle  11 NSaved=  11.
 NSaved=11 IEnMin=11 EnMin= -664.251212357421     IErMin=11 ErrMin= 7.25D-07
 ErrMax= 7.25D-07 EMaxC= 1.00D-01 BMatC= 1.65D-11 BMatP= 1.72D-11
 IDIUse=1 WtCom= 1.00D+00 WtEn= 0.00D+00
 Coeff-Com: -0.203D-03 0.207D-02 0.176D-02 0.259D-02-0.999D-02-0.352D-01
 Coeff-Com:  0.373D-01 0.169D+00 0.154D+00-0.170D+01 0.238D+01
 Coeff:     -0.203D-03 0.207D-02 0.176D-02 0.259D-02-0.999D-02-0.352D-01
 Coeff:      0.373D-01 0.169D+00 0.154D+00-0.170D+01 0.238D+01
 Gap=     0.578 Goal=   None    Shift=    0.000
 Gap=     0.302 Goal=   None    Shift=    0.000
 RMSDP=1.61D-07 MaxDP=3.54D-06 DE=-6.86D-11 OVMax= 2.14D-05

 Cycle  21  Pass 1  IDiag  1:
 RMSU=  2.92D-08    CP:  1.00D+00  1.09D+00  1.03D+00  2.73D+00  3.00D+00
                    CP:  3.00D+00  2.70D+00  1.34D+00  3.00D+00  3.00D+00
                    CP:  3.00D+00
 FoFJK:  IHMeth= 1 ICntrl=     0 DoSepK=T KAlg= 1 I1Cent= 0 FoldK=F
 E= -664.251212357537     Delta-E=       -0.000000000116 Rises=F Damp=F
 DIIS: error= 7.15D-07 at cycle  12 NSaved=  12.
 NSaved=12 IEnMin=12 EnMin= -664.251212357537     IErMin=12 ErrMin= 7.15D-07
 ErrMax= 7.15D-07 EMaxC= 1.00D-01 BMatC= 1.60D-11 BMatP= 1.65D-11
 IDIUse=1 WtCom= 1.00D+00 WtEn= 0.00D+00
 Large coefficients: NSaved= 12 BigCof=   13.15 CofMax=   10.00 Det=-8.29D-15
 Inversion failed.  Reducing to 11 matrices.
 Large coefficients: NSaved= 11 BigCof=   12.65 CofMax=   10.00 Det=-9.50D-15
 Inversion failed.  Reducing to 10 matrices.
 Coeff-Com:  0.223D-03 0.200D-01 0.384D-02-0.188D-01-0.750D-01 0.111D+00
 Coeff-Com:  0.319D+00 0.135D+01-0.993D+01 0.922D+01
 Coeff:      0.223D-03 0.200D-01 0.384D-02-0.188D-01-0.750D-01 0.111D+00
 Coeff:      0.319D+00 0.135D+01-0.993D+01 0.922D+01
 Gap=     0.578 Goal=   None    Shift=    0.000
 Gap=     0.302 Goal=   None    Shift=    0.000
 RMSDP=1.20D-06 MaxDP=2.61D-05 DE=-1.16D-10 OVMax= 1.60D-04

 Cycle  22  Pass 1  IDiag  1:
 RMSU=  1.25D-07    CP:  1.00D+00  1.09D+00  1.03D+00  2.77D+00  3.00D+00
                    CP:  3.00D+00  3.00D+00  1.61D+00  3.00D+00  3.00D+00
                    CP:  3.00D+00  3.00D+00
 FoFJK:  IHMeth= 1 ICntrl=     0 DoSepK=T KAlg= 1 I1Cent= 0 FoldK=F
 E= -664.251212358348     Delta-E=       -0.000000000811 Rises=F Damp=F
 DIIS: error= 6.37D-07 at cycle  13 NSaved=  11.
 NSaved=11 IEnMin=11 EnMin= -664.251212358348     IErMin=11 ErrMin= 6.37D-07
 ErrMax= 6.37D-07 EMaxC= 1.00D-01 BMatC= 1.29D-11 BMatP= 1.60D-11
 IDIUse=1 WtCom= 1.00D+00 WtEn= 0.00D+00
 Large coefficients: NSaved= 11 BigCof=   11.76 CofMax=   10.00 Det=-1.03D-14
 Inversion failed.  Reducing to 10 matrices.
 Large coefficients: NSaved= 10 BigCof=   11.83 CofMax=   10.00 Det=-1.07D-14
 Inversion failed.  Reducing to  9 matrices.
 Coeff-Com: -0.199D-02 0.298D-01 0.302D-01-0.277D+00-0.407D+00 0.275D+01
 Coeff-Com:  0.496D+00-0.788D+01 0.626D+01
 Coeff:     -0.199D-02 0.298D-01 0.302D-01-0.277D+00-0.407D+00 0.275D+01
 Coeff:      0.496D+00-0.788D+01 0.626D+01
 Gap=     0.578 Goal=   None    Shift=    0.000
 Gap=     0.302 Goal=   None    Shift=    0.000
 RMSDP=5.76D-06 MaxDP=1.25D-04 DE=-8.11D-10 OVMax= 7.67D-04

 Cycle  23  Pass 1  IDiag  1:
 RMSU=  4.53D-07    CP:  1.00D+00  1.09D+00  1.05D+00  2.97D+00  3.00D+00
                    CP:  3.00D+00  3.00D+00  2.84D+00  3.00D+00  3.00D+00
                    CP:  3.00D+00  3.00D+00  3.00D+00
 FoFJK:  IHMeth= 1 ICntrl=     0 DoSepK=T KAlg= 1 I1Cent= 0 FoldK=F
 E= -664.251212360937     Delta-E=       -0.000000002589 Rises=F Damp=F
 DIIS: error= 2.62D-07 at cycle  14 NSaved=  10.
 NSaved=10 IEnMin=10 EnMin= -664.251212360937     IErMin=10 ErrMin= 2.62D-07
 ErrMax= 2.62D-07 EMaxC= 1.00D-01 BMatC= 2.57D-12 BMatP= 1.29D-11
 IDIUse=1 WtCom= 1.00D+00 WtEn= 0.00D+00
 Coeff-Com: -0.109D-01-0.191D-01 0.548D-01 0.497D-01-0.228D-01-0.152D+01
 Coeff-Com:  0.524D+01-0.335D+01-0.123D+01 0.180D+01
 Coeff:     -0.109D-01-0.191D-01 0.548D-01 0.497D-01-0.228D-01-0.152D+01
 Coeff:      0.524D+01-0.335D+01-0.123D+01 0.180D+01
 Gap=     0.578 Goal=   None    Shift=    0.000
 Gap=     0.302 Goal=   None    Shift=    0.000
 RMSDP=3.61D-06 MaxDP=7.84D-05 DE=-2.59D-09 OVMax= 4.81D-04

 Cycle  24  Pass 1  IDiag  1:
 RMSU=  2.08D-07    CP:  1.00D+00  1.09D+00  1.07D+00  3.00D+00  3.00D+00
                    CP:  3.00D+00  3.00D+00  3.00D+00  3.00D+00  3.00D+00
                    CP:  3.00D+00  3.00D+00  3.00D+00  1.96D+00
 FoFJK:  IHMeth= 1 ICntrl=     0 DoSepK=T KAlg= 1 I1Cent= 0 FoldK=F
 E= -664.251212361449     Delta-E=       -0.000000000512 Rises=F Damp=F
 DIIS: error= 2.38D-08 at cycle  15 NSaved=  11.
 NSaved=11 IEnMin=11 EnMin= -664.251212361449     IErMin=11 ErrMin= 2.38D-08
 ErrMax= 2.38D-08 EMaxC= 1.00D-01 BMatC= 2.37D-13 BMatP= 2.57D-12
 IDIUse=1 WtCom= 1.00D+00 WtEn= 0.00D+00
 Coeff-Com: -0.390D-02-0.105D-01 0.185D-01 0.542D-01 0.413D-01-0.888D+00
 Coeff-Com:  0.216D+01-0.910D+00-0.802D+00 0.623D+00 0.720D+00
 Coeff:     -0.390D-02-0.105D-01 0.185D-01 0.542D-01 0.413D-01-0.888D+00
 Coeff:      0.216D+01-0.910D+00-0.802D+00 0.623D+00 0.720D+00
 Gap=     0.578 Goal=   None    Shift=    0.000
 Gap=     0.302 Goal=   None    Shift=    0.000
 RMSDP=2.62D-07 MaxDP=5.68D-06 DE=-5.12D-10 OVMax= 3.49D-05

 Cycle  25  Pass 1  IDiag  1:
 RMSU=  2.48D-09    CP:  1.00D+00  1.09D+00  1.07D+00  3.00D+00  3.00D+00
                    CP:  3.00D+00  3.00D+00  3.00D+00  3.00D+00  3.00D+00
                    CP:  3.00D+00  3.00D+00  3.00D+00  2.03D+00  1.09D+00
 FoFJK:  IHMeth= 1 ICntrl=     0 DoSepK=T KAlg= 1 I1Cent= 0 FoldK=F
 E= -664.251212361453     Delta-E=       -0.000000000004 Rises=F Damp=F
 DIIS: error= 8.81D-09 at cycle  16 NSaved=  12.
 NSaved=12 IEnMin=12 EnMin= -664.251212361453     IErMin=12 ErrMin= 8.81D-09
 ErrMax= 8.81D-09 EMaxC= 1.00D-01 BMatC= 4.74D-14 BMatP= 2.37D-13
 IDIUse=1 WtCom= 1.00D+00 WtEn= 0.00D+00
 Coeff-Com:  0.753D-03 0.199D-02-0.524D-02 0.145D-02 0.132D-01 0.969D-01
 Coeff-Com: -0.551D+00 0.487D+00 0.291D-01-0.223D+00 0.267D+00 0.882D+00
 Coeff:      0.753D-03 0.199D-02-0.524D-02 0.145D-02 0.132D-01 0.969D-01
 Coeff:     -0.551D+00 0.487D+00 0.291D-01-0.223D+00 0.267D+00 0.882D+00
 Gap=     0.578 Goal=   None    Shift=    0.000
 Gap=     0.302 Goal=   None    Shift=    0.000
 RMSDP=8.93D-08 MaxDP=1.94D-06 DE=-3.75D-12 OVMax= 1.19D-05

 Cycle  26  Pass 1  IDiag  1:
 RMSU=  1.13D-09    CP:  1.00D+00  1.09D+00  1.07D+00  3.00D+00  3.00D+00
                    CP:  3.00D+00  3.00D+00  3.00D+00  3.00D+00  3.00D+00
                    CP:  3.00D+00  3.00D+00  3.00D+00  2.05D+00  1.12D+00
                    CP:  1.08D+00
 FoFJK:  IHMeth= 1 ICntrl=     0 DoSepK=T KAlg= 1 I1Cent= 0 FoldK=F
 E= -664.251212361453     Delta-E=        0.000000000000 Rises=F Damp=F
 DIIS: error= 2.33D-09 at cycle  17 NSaved=  13.
 NSaved=13 IEnMin=13 EnMin= -664.251212361453     IErMin=13 ErrMin= 2.33D-09
 ErrMax= 2.33D-09 EMaxC= 1.00D-01 BMatC= 4.08D-15 BMatP= 4.74D-14
 IDIUse=1 WtCom= 1.00D+00 WtEn= 0.00D+00
 Coeff-Com:  0.491D-03 0.170D-02-0.277D-02-0.762D-02-0.406D-02 0.125D+00
 Coeff-Com: -0.371D+00 0.255D+00 0.434D-01-0.101D+00 0.354D-01 0.265D+00
 Coeff-Com:  0.761D+00
 Coeff:      0.491D-03 0.170D-02-0.277D-02-0.762D-02-0.406D-02 0.125D+00
 Coeff:     -0.371D+00 0.255D+00 0.434D-01-0.101D+00 0.354D-01 0.265D+00
 Coeff:      0.761D+00
 Gap=     0.578 Goal=   None    Shift=    0.000
 Gap=     0.302 Goal=   None    Shift=    0.000
 RMSDP=5.59D-09 MaxDP=1.23D-07 DE=-1.14D-13 OVMax= 7.43D-07

 SCF Done:  E(UwB97XD) =  -664.251212361     A.U. after   26 cycles
             Convg  =    0.5595D-08             -V/T =  2.0038
 <Sx>= 0.0000 <Sy>= 0.0000 <Sz>= 0.5000 <S**2>= 0.7527 S= 0.5013
 <L.S>= 0.000000000000E+00
 KE= 6.617101721210D+02 PE=-2.087831493417D+03 EE= 5.086094593262D+02
 Annihilation of the first spin contaminant:
 S**2 before annihilation     0.7527,   after     0.7500
 Leave Link  502 at Wed May  3 09:59:03 2017, MaxMem=   33554432 cpu:     129.5
 (Enter /share/apps/gaussian09/g09/l601.exe)
 Copying SCF densities to generalized density rwf, IOpCl= 1 IROHF=0.

 **********************************************************************

            Population analysis using the SCF density.

 **********************************************************************

 Alpha  occ. eigenvalues --  -66.46424 -24.86883 -24.86063 -24.86039 -19.37722
 Alpha  occ. eigenvalues --   -5.56103  -3.90759  -3.90659  -3.90543  -1.35798
 Alpha  occ. eigenvalues --   -1.33231  -1.32582  -1.17673  -0.69752  -0.63449
 Alpha  occ. eigenvalues --   -0.62359  -0.61115  -0.58344  -0.57065  -0.56542
 Alpha  occ. eigenvalues --   -0.55074  -0.54812  -0.53713  -0.52928  -0.50104
 Alpha virt. eigenvalues --    0.07721   0.14732   0.15469   0.16308   0.29240
 Alpha virt. eigenvalues --    0.29601   0.31636   0.32071   0.49205   0.50844
 Alpha virt. eigenvalues --    0.52306   0.60195   0.60202   0.68768   0.85255
 Alpha virt. eigenvalues --    0.85592   0.92772   1.26974   1.27274   1.30164
 Alpha virt. eigenvalues --    1.30874   1.31318   1.31649   1.32762   1.33229
 Alpha virt. eigenvalues --    1.39135   1.48549   1.49012   1.56352   2.13074
 Alpha virt. eigenvalues --    2.13589   2.26142   2.56947   2.59401   2.59655
 Alpha virt. eigenvalues --    2.62007   2.64650   2.73021   2.76801   2.91222
 Alpha virt. eigenvalues --    3.26380   9.77275  43.12224
  Beta  occ. eigenvalues --  -66.46441 -24.86788 -24.86042 -24.86019 -19.35648
  Beta  occ. eigenvalues --   -5.56123  -3.90770  -3.90677  -3.90577  -1.35627
  Beta  occ. eigenvalues --   -1.33074  -1.32529  -1.10208  -0.69281  -0.62280
  Beta  occ. eigenvalues --   -0.62247  -0.60037  -0.56897  -0.56794  -0.54773
  Beta  occ. eigenvalues --   -0.54753  -0.52969  -0.52824  -0.47660
  Beta virt. eigenvalues --   -0.17483   0.08200   0.15684   0.15952   0.16970
  Beta virt. eigenvalues --    0.29531   0.29595   0.31811   0.32358   0.49674
  Beta virt. eigenvalues --    0.52909   0.54727   0.60200   0.60759   0.69832
  Beta virt. eigenvalues --    0.85418   0.85654   0.93690   1.27022   1.27267
  Beta virt. eigenvalues --    1.30175   1.31166   1.31391   1.31690   1.32950
  Beta virt. eigenvalues --    1.33257   1.39209   1.48643   1.49037   1.56481
  Beta virt. eigenvalues --    2.13282   2.14120   2.26216   2.63644   2.66183
  Beta virt. eigenvalues --    2.66483   2.67852   2.69140   2.78569   2.80917
  Beta virt. eigenvalues --    2.94656   3.30074   9.77287  43.14810
          Condensed to atoms (all electrons):
              1          2          3          4          5
     1  Si  11.543217   0.339682   0.349782   0.352344   0.352218
     2  O    0.339682   7.871293  -0.007543  -0.010406  -0.010433
     3  F    0.349782  -0.007543   8.958001  -0.006039  -0.006040
     4  F    0.352344  -0.010406  -0.006039   8.967407  -0.007532
     5  F    0.352218  -0.010433  -0.006040  -0.007532   8.968014
 Mulliken atomic charges:
              1
     1  Si   1.062757
     2  O   -0.182594
     3  F   -0.288162
     4  F   -0.295774
     5  F   -0.296227
 Sum of Mulliken atomic charges =   0.00000
 Mulliken charges with hydrogens summed into heavy atoms:
              1
     1  Si   1.062757
     2  O   -0.182594
     3  F   -0.288162
     4  F   -0.295774
     5  F   -0.296227
 Sum of Mulliken charges with hydrogens summed into heavy atoms =   0.00000
          Atomic-Atomic Spin Densities.
              1          2          3          4          5
     1  Si  -0.016464   0.014926  -0.004799  -0.000407  -0.000346
     2  O    0.014926   0.956774  -0.005035  -0.000727  -0.000675
     3  F   -0.004799  -0.005035   0.037534  -0.000041  -0.000039
     4  F   -0.000407  -0.000727  -0.000041   0.008355   0.000063
     5  F   -0.000346  -0.000675  -0.000039   0.000063   0.007961
 Mulliken atomic spin densities:
              1
     1  Si  -0.007090
     2  O    0.965263
     3  F    0.027620
     4  F    0.007244
     5  F    0.006964
 Sum of Mulliken atomic spin densities =   1.00000
 Electronic spatial extent (au):  <R**2>=           1221.4267
 Charge=              0.0000 electrons
 Dipole moment (field-independent basis, Debye):
    X=              0.1673    Y=              0.2731    Z=              0.4308  Tot=              0.5368
 Quadrupole moment (field-independent basis, Debye-Ang):
   XX=            -34.3498   YY=            -32.5341   ZZ=            -34.7484
   XY=             -0.7497   XZ=             -0.8864   YZ=             -0.0442
 Traceless Quadrupole moment (field-independent basis, Debye-Ang):
   XX=             -0.4723   YY=              1.3433   ZZ=             -0.8710
   XY=             -0.7497   XZ=             -0.8864   YZ=             -0.0442
 Octapole moment (field-independent basis, Debye-Ang**2):
  XXX=            183.5044  YYY=            -32.7751  ZZZ=            119.8016  XYY=             53.0072
  XXY=            -11.6569  XXZ=             41.3900  XZZ=             58.0780  YZZ=            -18.0363
  YYZ=             38.3347  XYZ=              0.0471
 Hexadecapole moment (field-independent basis, Debye-Ang**3):
 XXXX=           -790.7506 YYYY=           -148.5629 ZZZZ=           -421.9940 XXXY=             66.8409
 XXXZ=           -221.1580 YYYX=             53.8005 YYYZ=             37.9775 ZZZX=           -202.4087
 ZZZY=             60.2846 XXYY=           -134.0798 XXZZ=           -187.3901 YYZZ=            -98.8082
 XXYZ=             14.5554 YYXZ=            -64.4858 ZZXY=             28.3109
 N-N= 2.532606496081D+02 E-N=-3.122127024273D+03  KE= 9.911689655899D+02
                          Isotropic Fermi Contact Couplings
        Atom                 a.u.       MegaHertz       Gauss      10(-4) cm-1
     1  Si(29)            -0.05242      46.58952      16.62430      15.54059
     2  O(17)              0.06584     -39.91268     -14.24183     -13.31344
     3  F(19)              0.00662      27.87113       9.94511       9.29681
     4  F(19)             -0.00002      -0.07063      -0.02520      -0.02356
     5  F(19)             -0.00010      -0.41159      -0.14687      -0.13729
 --------------------------------------------------------
       Center         ----  Spin Dipole Couplings  ----
                      3XX-RR        3YY-RR        3ZZ-RR
 --------------------------------------------------------
     1   Atom       -0.011312      0.008745      0.002567
     2   Atom       -0.673460      2.096608     -1.423148
     3   Atom       -0.096701      0.038007      0.058693
     4   Atom       -0.025097      0.006426      0.018671
     5   Atom       -0.015924      0.041337     -0.025413
 --------------------------------------------------------
                        XY            XZ            YZ
 --------------------------------------------------------
     1   Atom       -0.009494      0.014985      0.002732
     2   Atom       -2.088439      0.646335     -1.237775
     3   Atom        0.042956      0.046497      0.157013
     4   Atom       -0.016797     -0.022952      0.044502
     5   Atom        0.032857      0.009017      0.025249
 --------------------------------------------------------


 ---------------------------------------------------------------------------------
              Anisotropic Spin Dipole Couplings in Principal Axis System
 ---------------------------------------------------------------------------------

       Atom             a.u.   MegaHertz   Gauss  10(-4) cm-1        Axes

              Baa    -0.0237     2.511     0.896     0.838  0.8202  0.2821 -0.4977
     1 Si(29) Bbb     0.0091    -0.968    -0.345    -0.323  0.1676  0.7134  0.6805
              Bcc     0.0146    -1.544    -0.551    -0.515 -0.5471  0.6415 -0.5378
 
              Baa    -1.8200   131.694    46.992    43.928  0.3435  0.4446  0.8272
     2 O(17)  Bbb    -1.7853   129.180    46.095    43.090  0.8216  0.2845 -0.4941
              Bcc     3.6053  -260.874   -93.086   -87.018 -0.4550  0.8494 -0.2676
 
              Baa    -0.1097   -55.081   -19.654   -18.373  0.8338  0.2697 -0.4817
     3 F(19)  Bbb    -0.1087   -54.615   -19.488   -18.218 -0.5158  0.6917 -0.5054
              Bcc     0.2184   109.696    39.142    36.591  0.1969  0.6699  0.7159
 
              Baa    -0.0356   -17.862    -6.374    -5.958  0.7742 -0.2877  0.5637
     4 F(19)  Bbb    -0.0307   -15.418    -5.502    -5.143  0.5592  0.7281 -0.3964
              Bcc     0.0663    33.280    11.875    11.101 -0.2964  0.6221  0.7246
 
              Baa    -0.0346   -17.386    -6.204    -5.799  0.3535 -0.4292  0.8311
     5 F(19)  Bbb    -0.0296   -14.884    -5.311    -4.965  0.8499 -0.2238 -0.4771
              Bcc     0.0643    32.269    11.514    10.764  0.3907  0.8750  0.2857
 

 ---------------------------------------------------------------------------------

 No NMR shielding tensors so no spin-rotation constants.
 Leave Link  601 at Wed May  3 09:59:03 2017, MaxMem=   33554432 cpu:       2.2
 (Enter /share/apps/gaussian09/g09/l701.exe)
 Compute integral first derivatives.
 ... and contract with generalized density number  0.
 R6Disp: Adding dispersion energy 1st derivatives to the gradient.
 Leave Link  701 at Wed May  3 09:59:03 2017, MaxMem=   33554432 cpu:       1.6
 (Enter /share/apps/gaussian09/g09/l702.exe)
 L702 exits ... SP integral derivatives will be done elsewhere.
 Leave Link  702 at Wed May  3 09:59:03 2017, MaxMem=   33554432 cpu:       0.3
 (Enter /share/apps/gaussian09/g09/l703.exe)
 Compute integral first derivatives, UseDBF=F ICtDFT=           0.
 Integral derivatives from FoFDir, PRISM(SPDF).
 Calling FoFJK, ICntrl=      2127 FMM=F ISym2X=0 I1Cent= 0 IOpClX= 1 NMat=1 NMatS=1 NMatT=0.
 FoFJK:  IHMeth= 1 ICntrl=  2127 DoSepK=T KAlg= 1 I1Cent= 0 FoldK=F
 FoFCou: FMM=F IPFlag=           0 FMFlag=      100000 FMFlg1=         800
         NFxFlg=           0 DoJE=F BraDBF=F KetDBF=F FulRan=T
         Omega=  0.000000  0.000000  1.000000  0.000000  0.000000 ICntrl=    2527 IOpCl=  0
         NMat0=    1 NMatS0=    1 NMatT0=    0 NMatD0=    1 NMtDS0=    0 NMtDT0=    0
         I1Cent=           0 NGrid=           0.
 Symmetry not used in FoFCou.
 Leave Link  703 at Wed May  3 09:59:05 2017, MaxMem=   33554432 cpu:       9.4
 (Enter /share/apps/gaussian09/g09/l716.exe)
 Dipole        = 6.58318380D-02 1.07441282D-01 1.69487138D-01
 -------------------------------------------------------------------
 Center     Atomic                   Forces (Hartrees/Bohr)
 Number     Number              X              Y              Z
 -------------------------------------------------------------------
      1       14          -0.015909509   -0.014053903   -0.034085285
      2        8           0.010857540    0.012534449    0.024962583
      3        9           0.000000000    0.000000000    0.000000000
      4        9           0.000000000    0.000000000    0.000000000
      5        9           0.000000000    0.000000000    0.000000000
 -------------------------------------------------------------------
 Cartesian Forces:  Max     0.034085285 RMS     0.012937183
 Leave Link  716 at Wed May  3 09:59:05 2017, MaxMem=   33554432 cpu:       0.3
 (Enter /share/apps/gaussian09/g09/l103.exe)

 GradGradGradGradGradGradGradGradGradGradGradGradGradGradGradGradGradGrad
 Berny optimization.
 Internal  Forces:  Max     0.029924244 RMS     0.006581106
 Search for a local minimum.
 Step number   1 out of a maximum of   33
 All quantities printed in internal units (Hartrees-Bohrs-Radians)
 RMS Force = .82642D-02 SwitMx=.10000D-02 MixMth= 1
 Mixed Optimization -- RFO/linear search
 Second derivative matrix not updated -- first step.
 ITU=  0
     Eigenvalues ---    0.11166   0.17043   0.21340   0.42412   0.44781
     Eigenvalues ---    0.483361000.000001000.000001000.000001000.00000
     Eigenvalues --- 1000.000001000.000001000.000001000.000001000.00000
     Eigenvalues --- 1000.000001000.000001000.000001000.000001000.00000
     Eigenvalues --- 1000.000001000.000001000.00000
 RFO step:  Lambda=-2.15233601D-03 EMin= 1.11660452D-01
 Linear search not attempted -- first point.
 Iteration  1 RMS(Cart)=  0.01045431 RMS(Int)=  0.00009884
 Iteration  2 RMS(Cart)=  0.00011947 RMS(Int)=  0.00005976
 Iteration  3 RMS(Cart)=  0.00000259 RMS(Int)=  0.00005978
 Iteration  4 RMS(Cart)=  0.00000000 RMS(Int)=  0.00005978
 Variable       Old X    -DE/DX   Delta X   Delta X   Delta X     New X
                                 (Linear)    (Quad)   (Total)
    X3       -2.25904  -0.00151   0.00000   0.00000   0.00000  -2.25904
    Y3       -2.11562  -0.00040   0.00000   0.00000   0.00000  -2.11562
    Z3       -2.17653  -0.00339   0.00000   0.00000   0.00000  -2.17653
    X4       -2.35237  -0.00092   0.00000   0.00000   0.00000  -2.35237
    Y4        2.07631  -0.00056   0.00000   0.00000   0.00000   2.07631
    Z4       -4.78660  -0.00320   0.00000   0.00000   0.00000  -4.78660
    X5       -6.33818  -0.00263   0.00000   0.00000   0.00000  -6.33818
    Y5        0.66491  -0.00056   0.00000   0.00000   0.00000   0.66491
    Z5       -2.34996  -0.00254   0.00000   0.00000   0.00000  -2.34996
    R1        3.05283   0.02992   0.00000   0.06163   0.06163   3.11446
    R2        3.03476   0.00018   0.00000  -0.00469  -0.00457   3.03019
    R3        3.04761  -0.00217   0.00000  -0.01111  -0.01098   3.03663
    R4        3.04881  -0.00275   0.00000  -0.01155  -0.01145   3.03736
    A1        1.88730  -0.00206   0.00000  -0.01711  -0.01710   1.87020
    A2        1.96334  -0.00133   0.00000  -0.00317  -0.00318   1.96016
    A3        1.96477  -0.00189   0.00000  -0.00308  -0.00312   1.96165
    A4        1.89519   0.00078   0.00000   0.00723   0.00715   1.90234
    A5        1.89506   0.00163   0.00000   0.00743   0.00737   1.90242
    A6        1.85624   0.00310   0.00000   0.00993   0.00990   1.86614
    D1        2.08821  -0.00287   0.00000  -0.01850  -0.01855   2.06966
    D2       -2.08900   0.00265   0.00000   0.01832   0.01838  -2.07063
    D3        2.15765  -0.00069   0.00000   0.00098   0.00092   2.15857
    D4       -2.03653  -0.00335   0.00000  -0.01733  -0.01746  -2.05399
         Item               Value     Threshold  Converged?
 Maximum Force            0.029924     0.000450     NO 
 RMS     Force            0.008264     0.000300     NO 
 Maximum Displacement     0.036464     0.001800     NO 
 RMS     Displacement     0.010499     0.001200     NO 
 Predicted change in Energy=-1.083922D-03
 GradGradGradGradGradGradGradGradGradGradGradGradGradGradGradGradGradGrad

 Leave Link  103 at Wed May  3 09:59:05 2017, MaxMem=   33554432 cpu:       0.0
 (Enter /share/apps/gaussian09/g09/l202.exe)
                          Input orientation:                          
 ---------------------------------------------------------------------
 Center     Atomic      Atomic             Coordinates (Angstroms)
 Number     Number       Type             X           Y           Z
 ---------------------------------------------------------------------
      1         14           0       -1.748170    0.385346   -1.183928
      2          8           0       -1.185673    1.138834    0.169622
      3          9           0       -1.195433   -1.119540   -1.151769
      4          9           0       -1.244818    1.098738   -2.532962
      5          9           0       -3.354018    0.351855   -1.243545
 ---------------------------------------------------------------------
                    Distance matrix (angstroms):
                    1          2          3          4          5
     1  Si   0.000000
     2  O    1.648103   0.000000
     3  F    1.603507   2.616567   0.000000
     4  F    1.606918   2.703528   2.613597   0.000000
     5  F    1.607304   2.705198   2.613985   2.582471   0.000000
 Symmetry turned off by external request.
 Stoichiometry    F3OSi(2)
 Framework group  C1[X(F3OSi)]
 Deg. of freedom     9
 Full point group                 C1      NOp   1
 Rotational constants (GHZ):      4.1132250      3.9878171      3.8706406
 Leave Link  202 at Wed May  3 09:59:05 2017, MaxMem=   33554432 cpu:       0.0
 (Enter /share/apps/gaussian09/g09/l301.exe)
 Basis read from rwf:  (5D, 7F)
 No pseudopotential information found on rwf file.
 Integral buffers will be    131072 words long.
 Raffenetti 2 integral format.
 Two-electron integral symmetry is turned off.
    68 basis functions,   148 primitive gaussians,    70 cartesian basis functions
    25 alpha electrons       24 beta electrons
       nuclear repulsion energy       252.6537336300 Hartrees.
 IExCor= 4639 DFT=T Ex+Corr=wB97XD ExCW=0 ScaHFX=  1.000000
 ScaDFX=  1.000000  1.000000  1.000000  1.000000 ScalE2=  1.000000  1.000000
 IRadAn=      0 IRanWt=     -1 IRanGd=            0 ICorTp=0
  HFx wShort=  0.000000 wLong=  0.200000 cFull=  0.222036 cShort=  0.000000 cLong=  0.777964
  DFx wShort=  0.000000 wLong=  0.200000 cFull=  0.000000 cShort=  0.000000 cLong=  1.000000
 NAtoms=    5 NActive=    5 NUniq=    5 SFac= 1.00D+00 NAtFMM=   60 NAOKFM=F Big=F
 R6Disp: Dispersion energy =        -0.0008466478 Hartrees.
 Nuclear repulsion after empirical dispersion term =      252.6528869822 Hartrees.
 No density basis found on file   724.
 Leave Link  301 at Wed May  3 09:59:05 2017, MaxMem=   33554432 cpu:       0.7
 (Enter /share/apps/gaussian09/g09/l302.exe)
 NPDir=0 NMtPBC=     1 NCelOv=     1 NCel=       1 NClECP=     1 NCelD=      1
         NCelK=      1 NCelE2=     1 NClLst=     1 CellRange=     0.0.
 One-electron integrals computed using PRISM.
 NBasis=    68 RedAO= T  NBF=    68
 NBsUse=    68 1.00D-06 NBFU=    68
 Precomputing XC quadrature grid using
 IXCGrd= 2 IRadAn=           0 IRanWt=          -1 IRanGd=           0 AccXCQ= 0.00D+00.
 NRdTot=     315 NPtTot=       39840 NUsed=       42123 NTot=       42155
 NSgBfM=    69    69    69    69    69 NAtAll=     5     5.
 Leave Link  302 at Wed May  3 09:59:05 2017, MaxMem=   33554432 cpu:       1.6
 (Enter /share/apps/gaussian09/g09/l303.exe)
 DipDrv:  MaxL=1.
 Leave Link  303 at Wed May  3 09:59:05 2017, MaxMem=   33554432 cpu:       0.4
 (Enter /share/apps/gaussian09/g09/l401.exe)
 Initial guess read from the read-write file.
 B after Tr=     0.000000    0.000000    0.000000
         Rot=    1.000000    0.000000    0.000000    0.000000 Ang=   0.00 deg.
 Guess basis will be translated and rotated to current coordinates.
 Initial guess <Sx>= 0.0000 <Sy>= 0.0000 <Sz>= 0.5000 <S**2>= 0.7527 S= 0.5013
 Generating alternative initial guess.
 Harris functional with IExCor= 4639 diagonalized for initial guess.
 ExpMin= 7.01D-02 ExpMax= 4.48D+04 ExpMxC= 1.53D+03 IAcc=2 IRadAn=         4 AccDes= 0.00D+00
 HarFok:  IExCor= 4639 AccDes= 0.00D+00 IRadAn=         4 IDoV= 1
 ScaDFX=  1.000000  1.000000  1.000000  1.000000
 FoFCou: FMM=F IPFlag=           0 FMFlag=      100000 FMFlg1=           0
         NFxFlg=           0 DoJE=T BraDBF=F KetDBF=T FulRan=T
         Omega=  0.000000  0.000000  1.000000  0.000000  0.000000 ICntrl=     500 IOpCl=  0
         NMat0=    1 NMatS0=    1 NMatT0=    0 NMatD0=    1 NMtDS0=    0 NMtDT0=    0
         I1Cent=           4 NGrid=           0.
 Symmetry not used in FoFCou.
 Harris En= -646.993834210970    
 Leave Link  401 at Wed May  3 09:59:06 2017, MaxMem=   33554432 cpu:       2.8
 (Enter /share/apps/gaussian09/g09/l502.exe)
 UHF open shell SCF:
 Requested convergence on RMS density matrix=1.00D-08 within 128 cycles.
 Requested convergence on MAX density matrix=1.00D-06.
 Requested convergence on             energy=1.00D-06.
 No special actions if energy rises.
 Using DIIS extrapolation, IDIIS=  1040.
 Two-electron integral symmetry not used.
        42065 words used for storage of precomputed grid.
 IEnd=       75901 IEndB=       75901 NGot=    33554432 MDV=    33500142
 LenX=    33500142 LenY=    33494801
 Fock matrices will be formed incrementally for  20 cycles.
 Integral accuracy reduced to 1.0D-05 until final iterations.

 Cycle   1  Pass 0  IDiag  1:
 FoFJK:  IHMeth= 1 ICntrl=     0 DoSepK=T KAlg= 1 I1Cent= 0 FoldK=F
 FoFCou: FMM=F IPFlag=           0 FMFlag=      100000 FMFlg1=           0
         NFxFlg=           0 DoJE=T BraDBF=F KetDBF=F FulRan=T
         Omega=  0.000000  0.000000  1.000000  0.000000  0.000000 ICntrl=     500 IOpCl=  0
         NMat0=    1 NMatS0=    1 NMatT0=    0 NMatD0=    1 NMtDS0=    0 NMtDT0=    0
         I1Cent=           0 NGrid=           0.
 Symmetry not used in FoFCou.
 E= -664.252210674751    
 DIIS: error= 1.69D-03 at cycle   1 NSaved=   1.
 NSaved= 1 IEnMin= 1 EnMin= -664.252210674751     IErMin= 1 ErrMin= 1.69D-03
 ErrMax= 1.69D-03 EMaxC= 1.00D-01 BMatC= 1.32D-03 BMatP= 1.32D-03
 IDIUse=3 WtCom= 9.83D-01 WtEn= 1.69D-02
 Coeff-Com:  0.100D+01
 Coeff-En:   0.100D+01
 Coeff:      0.100D+01
 Gap=     0.571 Goal=   None    Shift=    0.000
 Gap=     0.304 Goal=   None    Shift=    0.000
 GapD=    0.304 DampG=1.000 DampE=1.000 DampFc=1.0000 IDamp=-1.
 RMSDP=3.50D-04 MaxDP=3.52D-03              OVMax= 6.92D-03

 Cycle   2  Pass 0  IDiag  1:
 RMSU=  2.50D-04    CP:  1.00D+00
 FoFJK:  IHMeth= 1 ICntrl=     0 DoSepK=T KAlg= 1 I1Cent= 0 FoldK=F
 E= -664.252550902720     Delta-E=       -0.000340227969 Rises=F Damp=F
 DIIS: error= 8.03D-04 at cycle   2 NSaved=   2.
 NSaved= 2 IEnMin= 2 EnMin= -664.252550902720     IErMin= 2 ErrMin= 8.03D-04
 ErrMax= 8.03D-04 EMaxC= 1.00D-01 BMatC= 2.55D-04 BMatP= 1.32D-03
 IDIUse=3 WtCom= 9.92D-01 WtEn= 8.03D-03
 Coeff-Com:  0.207D+00 0.793D+00
 Coeff-En:   0.000D+00 0.100D+01
 Coeff:      0.206D+00 0.794D+00
 Gap=     0.572 Goal=   None    Shift=    0.000
 Gap=     0.303 Goal=   None    Shift=    0.000
 RMSDP=9.54D-05 MaxDP=1.54D-03 DE=-3.40D-04 OVMax= 2.74D-03

 Cycle   3  Pass 0  IDiag  1:
 RMSU=  6.96D-05    CP:  1.00D+00  1.06D+00
 FoFJK:  IHMeth= 1 ICntrl=     0 DoSepK=T KAlg= 1 I1Cent= 0 FoldK=F
 E= -664.252586317528     Delta-E=       -0.000035414808 Rises=F Damp=F
 DIIS: error= 5.21D-04 at cycle   3 NSaved=   3.
 NSaved= 3 IEnMin= 3 EnMin= -664.252586317528     IErMin= 3 ErrMin= 5.21D-04
 ErrMax= 5.21D-04 EMaxC= 1.00D-01 BMatC= 8.64D-05 BMatP= 2.55D-04
 IDIUse=3 WtCom= 9.95D-01 WtEn= 5.21D-03
 Coeff-Com: -0.427D-01 0.349D+00 0.694D+00
 Coeff-En:   0.000D+00 0.901D-01 0.910D+00
 Coeff:     -0.425D-01 0.348D+00 0.695D+00
 Gap=     0.570 Goal=   None    Shift=    0.000
 Gap=     0.304 Goal=   None    Shift=    0.000
 RMSDP=4.62D-05 MaxDP=5.82D-04 DE=-3.54D-05 OVMax= 1.79D-03

 Cycle   4  Pass 0  IDiag  1:
 RMSU=  1.65D-05    CP:  1.00D+00  1.13D+00  7.31D-01
 FoFJK:  IHMeth= 1 ICntrl=     0 DoSepK=T KAlg= 1 I1Cent= 0 FoldK=F
 E= -664.252603605399     Delta-E=       -0.000017287871 Rises=F Damp=F
 DIIS: error= 9.91D-05 at cycle   4 NSaved=   4.
 NSaved= 4 IEnMin= 4 EnMin= -664.252603605399     IErMin= 4 ErrMin= 9.91D-05
 ErrMax= 9.91D-05 EMaxC= 1.00D-01 BMatC= 3.03D-06 BMatP= 8.64D-05
 IDIUse=1 WtCom= 1.00D+00 WtEn= 0.00D+00
 Coeff-Com: -0.171D-01 0.711D-02 0.143D+00 0.867D+00
 Coeff:     -0.171D-01 0.711D-02 0.143D+00 0.867D+00
 Gap=     0.570 Goal=   None    Shift=    0.000
 Gap=     0.304 Goal=   None    Shift=    0.000
 RMSDP=1.45D-05 MaxDP=1.78D-04 DE=-1.73D-05 OVMax= 9.76D-04

 Cycle   5  Pass 0  IDiag  1:
 RMSU=  5.85D-06    CP:  1.00D+00  1.15D+00  8.08D-01  1.22D+00
 FoFJK:  IHMeth= 1 ICntrl=     0 DoSepK=T KAlg= 1 I1Cent= 0 FoldK=F
 E= -664.252605177557     Delta-E=       -0.000001572158 Rises=F Damp=F
 DIIS: error= 7.96D-05 at cycle   5 NSaved=   5.
 NSaved= 5 IEnMin= 5 EnMin= -664.252605177557     IErMin= 5 ErrMin= 7.96D-05
 ErrMax= 7.96D-05 EMaxC= 1.00D-01 BMatC= 7.32D-07 BMatP= 3.03D-06
 IDIUse=1 WtCom= 1.00D+00 WtEn= 0.00D+00
 Coeff-Com: -0.193D-02-0.340D-01-0.157D-01 0.275D+00 0.776D+00
 Coeff:     -0.193D-02-0.340D-01-0.157D-01 0.275D+00 0.776D+00
 Gap=     0.570 Goal=   None    Shift=    0.000
 Gap=     0.304 Goal=   None    Shift=    0.000
 RMSDP=8.15D-06 MaxDP=1.21D-04 DE=-1.57D-06 OVMax= 7.55D-04

 Initial convergence to 1.0D-05 achieved.  Increase integral accuracy.
 Cycle   6  Pass 1  IDiag  1:
 FoFJK:  IHMeth= 1 ICntrl=     0 DoSepK=T KAlg= 1 I1Cent= 0 FoldK=F
 E= -664.252581967371     Delta-E=        0.000023210185 Rises=F Damp=F
 DIIS: error= 6.85D-05 at cycle   1 NSaved=   1.
 NSaved= 1 IEnMin= 1 EnMin= -664.252581967371     IErMin= 1 ErrMin= 6.85D-05
 ErrMax= 6.85D-05 EMaxC= 1.00D-01 BMatC= 2.32D-06 BMatP= 2.32D-06
 IDIUse=1 WtCom= 1.00D+00 WtEn= 0.00D+00
 Coeff-Com:  0.100D+01
 Coeff:      0.100D+01
 Gap=     0.570 Goal=   None    Shift=    0.000
 Gap=     0.304 Goal=   None    Shift=    0.000
 RMSDP=8.15D-06 MaxDP=1.21D-04 DE= 2.32D-05 OVMax= 6.51D-04

 Cycle   7  Pass 1  IDiag  1:
 RMSU=  1.15D-05    CP:  1.00D+00
 FoFJK:  IHMeth= 1 ICntrl=     0 DoSepK=T KAlg= 1 I1Cent= 0 FoldK=F
 E= -664.252582765547     Delta-E=       -0.000000798176 Rises=F Damp=F
 DIIS: error= 4.89D-05 at cycle   2 NSaved=   2.
 NSaved= 2 IEnMin= 2 EnMin= -664.252582765547     IErMin= 2 ErrMin= 4.89D-05
 ErrMax= 4.89D-05 EMaxC= 1.00D-01 BMatC= 2.61D-07 BMatP= 2.32D-06
 IDIUse=1 WtCom= 1.00D+00 WtEn= 0.00D+00
 Coeff-Com:  0.371D-01 0.963D+00
 Coeff:      0.371D-01 0.963D+00
 Gap=     0.570 Goal=   None    Shift=    0.000
 Gap=     0.304 Goal=   None    Shift=    0.000
 RMSDP=5.78D-06 MaxDP=9.09D-05 DE=-7.98D-07 OVMax= 5.17D-04

 Cycle   8  Pass 1  IDiag  1:
 RMSU=  2.79D-06    CP:  1.00D+00  1.07D+00
 FoFJK:  IHMeth= 1 ICntrl=     0 DoSepK=T KAlg= 1 I1Cent= 0 FoldK=F
 E= -664.252583001489     Delta-E=       -0.000000235942 Rises=F Damp=F
 DIIS: error= 3.80D-05 at cycle   3 NSaved=   3.
 NSaved= 3 IEnMin= 3 EnMin= -664.252583001489     IErMin= 3 ErrMin= 3.80D-05
 ErrMax= 3.80D-05 EMaxC= 1.00D-01 BMatC= 1.99D-07 BMatP= 2.61D-07
 IDIUse=1 WtCom= 1.00D+00 WtEn= 0.00D+00
 Coeff-Com: -0.521D-01 0.450D+00 0.602D+00
 Coeff:     -0.521D-01 0.450D+00 0.602D+00
 Gap=     0.570 Goal=   None    Shift=    0.000
 Gap=     0.304 Goal=   None    Shift=    0.000
 RMSDP=3.02D-06 MaxDP=4.46D-05 DE=-2.36D-07 OVMax= 2.85D-04

 Cycle   9  Pass 1  IDiag  1:
 RMSU=  1.36D-06    CP:  1.00D+00  1.17D+00  1.18D+00
 FoFJK:  IHMeth= 1 ICntrl=     0 DoSepK=T KAlg= 1 I1Cent= 0 FoldK=F
 E= -664.252583124744     Delta-E=       -0.000000123256 Rises=F Damp=F
 DIIS: error= 3.35D-05 at cycle   4 NSaved=   4.
 NSaved= 4 IEnMin= 4 EnMin= -664.252583124744     IErMin= 4 ErrMin= 3.35D-05
 ErrMax= 3.35D-05 EMaxC= 1.00D-01 BMatC= 6.16D-08 BMatP= 1.99D-07
 IDIUse=1 WtCom= 1.00D+00 WtEn= 0.00D+00
 Coeff-Com: -0.527D-02-0.375D+00-0.188D+00 0.157D+01
 Coeff:     -0.527D-02-0.375D+00-0.188D+00 0.157D+01
 Gap=     0.570 Goal=   None    Shift=    0.000
 Gap=     0.304 Goal=   None    Shift=    0.000
 RMSDP=5.80D-06 MaxDP=1.04D-04 DE=-1.23D-07 OVMax= 6.59D-04

 Cycle  10  Pass 1  IDiag  1:
 RMSU=  1.04D-06    CP:  1.00D+00  1.32D+00  1.91D+00  2.28D+00
 FoFJK:  IHMeth= 1 ICntrl=     0 DoSepK=T KAlg= 1 I1Cent= 0 FoldK=F
 E= -664.252583306458     Delta-E=       -0.000000181714 Rises=F Damp=F
 DIIS: error= 2.15D-05 at cycle   5 NSaved=   5.
 NSaved= 5 IEnMin= 5 EnMin= -664.252583306458     IErMin= 5 ErrMin= 2.15D-05
 ErrMax= 2.15D-05 EMaxC= 1.00D-01 BMatC= 2.90D-08 BMatP= 6.16D-08
 IDIUse=1 WtCom= 1.00D+00 WtEn= 0.00D+00
 Coeff-Com:  0.324D-01-0.363D+00-0.414D+00 0.219D+00 0.153D+01
 Coeff:      0.324D-01-0.363D+00-0.414D+00 0.219D+00 0.153D+01
 Gap=     0.570 Goal=   None    Shift=    0.000
 Gap=     0.304 Goal=   None    Shift=    0.000
 RMSDP=7.07D-06 MaxDP=1.29D-04 DE=-1.82D-07 OVMax= 8.05D-04

 Cycle  11  Pass 1  IDiag  1:
 RMSU=  1.54D-06    CP:  1.00D+00  1.46D+00  2.80D+00  3.00D+00  1.97D+00
 FoFJK:  IHMeth= 1 ICntrl=     0 DoSepK=T KAlg= 1 I1Cent= 0 FoldK=F
 E= -664.252583423636     Delta-E=       -0.000000117177 Rises=F Damp=F
 DIIS: error= 7.37D-06 at cycle   6 NSaved=   6.
 NSaved= 6 IEnMin= 6 EnMin= -664.252583423636     IErMin= 6 ErrMin= 7.37D-06
 ErrMax= 7.37D-06 EMaxC= 1.00D-01 BMatC= 7.49D-09 BMatP= 2.90D-08
 IDIUse=1 WtCom= 1.00D+00 WtEn= 0.00D+00
 Coeff-Com:  0.167D-01-0.749D-01-0.124D+00-0.351D+00 0.686D+00 0.848D+00
 Coeff:      0.167D-01-0.749D-01-0.124D+00-0.351D+00 0.686D+00 0.848D+00
 Gap=     0.570 Goal=   None    Shift=    0.000
 Gap=     0.304 Goal=   None    Shift=    0.000
 RMSDP=2.83D-06 MaxDP=4.83D-05 DE=-1.17D-07 OVMax= 3.22D-04

 Cycle  12  Pass 1  IDiag  1:
 RMSU=  5.54D-07    CP:  1.00D+00  1.51D+00  3.00D+00  3.00D+00  2.54D+00
                    CP:  1.60D+00
 FoFJK:  IHMeth= 1 ICntrl=     0 DoSepK=T KAlg= 1 I1Cent= 0 FoldK=F
 E= -664.252583439068     Delta-E=       -0.000000015432 Rises=F Damp=F
 DIIS: error= 1.75D-06 at cycle   7 NSaved=   7.
 NSaved= 7 IEnMin= 7 EnMin= -664.252583439068     IErMin= 7 ErrMin= 1.75D-06
 ErrMax= 1.75D-06 EMaxC= 1.00D-01 BMatC= 7.19D-10 BMatP= 7.49D-09
 IDIUse=1 WtCom= 1.00D+00 WtEn= 0.00D+00
 Coeff-Com: -0.327D-02 0.639D-01 0.713D-01-0.996D-01-0.220D+00 0.134D+00
 Coeff-Com:  0.105D+01
 Coeff:     -0.327D-02 0.639D-01 0.713D-01-0.996D-01-0.220D+00 0.134D+00
 Coeff:      0.105D+01
 Gap=     0.570 Goal=   None    Shift=    0.000
 Gap=     0.304 Goal=   None    Shift=    0.000
 RMSDP=7.73D-07 MaxDP=1.18D-05 DE=-1.54D-08 OVMax= 8.24D-05

 Cycle  13  Pass 1  IDiag  1:
 RMSU=  2.23D-07    CP:  1.00D+00  1.52D+00  3.00D+00  3.00D+00  2.72D+00
                    CP:  1.79D+00  1.41D+00
 FoFJK:  IHMeth= 1 ICntrl=     0 DoSepK=T KAlg= 1 I1Cent= 0 FoldK=F
 E= -664.252583440168     Delta-E=       -0.000000001100 Rises=F Damp=F
 DIIS: error= 6.59D-07 at cycle   8 NSaved=   8.
 NSaved= 8 IEnMin= 8 EnMin= -664.252583440168     IErMin= 8 ErrMin= 6.59D-07
 ErrMax= 6.59D-07 EMaxC= 1.00D-01 BMatC= 6.81D-11 BMatP= 7.19D-10
 IDIUse=1 WtCom= 1.00D+00 WtEn= 0.00D+00
 Coeff-Com: -0.102D-02 0.446D-02-0.457D-03 0.330D-01-0.366D-01-0.693D-01
 Coeff-Com: -0.509D-01 0.112D+01
 Coeff:     -0.102D-02 0.446D-02-0.457D-03 0.330D-01-0.366D-01-0.693D-01
 Coeff:     -0.509D-01 0.112D+01
 Gap=     0.570 Goal=   None    Shift=    0.000
 Gap=     0.304 Goal=   None    Shift=    0.000
 RMSDP=1.39D-07 MaxDP=1.92D-06 DE=-1.10D-09 OVMax= 8.99D-06

 Cycle  14  Pass 1  IDiag  1:
 RMSU=  5.55D-08    CP:  1.00D+00  1.52D+00  3.00D+00  3.00D+00  2.75D+00
                    CP:  1.82D+00  1.44D+00  1.17D+00
 FoFJK:  IHMeth= 1 ICntrl=     0 DoSepK=T KAlg= 1 I1Cent= 0 FoldK=F
 E= -664.252583440261     Delta-E=       -0.000000000093 Rises=F Damp=F
 DIIS: error= 6.56D-07 at cycle   9 NSaved=   9.
 NSaved= 9 IEnMin= 9 EnMin= -664.252583440261     IErMin= 9 ErrMin= 6.56D-07
 ErrMax= 6.56D-07 EMaxC= 1.00D-01 BMatC= 3.69D-11 BMatP= 6.81D-11
 IDIUse=1 WtCom= 1.00D+00 WtEn= 0.00D+00
 Coeff-Com: -0.306D-03-0.575D-02-0.979D-02 0.310D-01 0.855D-02-0.531D-01
 Coeff-Com: -0.172D+00 0.539D+00 0.663D+00
 Coeff:     -0.306D-03-0.575D-02-0.979D-02 0.310D-01 0.855D-02-0.531D-01
 Coeff:     -0.172D+00 0.539D+00 0.663D+00
 Gap=     0.570 Goal=   None    Shift=    0.000
 Gap=     0.304 Goal=   None    Shift=    0.000
 RMSDP=6.12D-08 MaxDP=8.94D-07 DE=-9.29D-11 OVMax= 6.17D-06

 Cycle  15  Pass 1  IDiag  1:
 RMSU=  2.25D-08    CP:  1.00D+00  1.52D+00  3.00D+00  3.00D+00  2.75D+00
                    CP:  1.82D+00  1.46D+00  1.25D+00  1.36D+00
 FoFJK:  IHMeth= 1 ICntrl=     0 DoSepK=T KAlg= 1 I1Cent= 0 FoldK=F
 E= -664.252583440299     Delta-E=       -0.000000000038 Rises=F Damp=F
 DIIS: error= 6.53D-07 at cycle  10 NSaved=  10.
 NSaved=10 IEnMin=10 EnMin= -664.252583440299     IErMin=10 ErrMin= 6.53D-07
 ErrMax= 6.53D-07 EMaxC= 1.00D-01 BMatC= 1.42D-11 BMatP= 3.69D-11
 IDIUse=1 WtCom= 1.00D+00 WtEn= 0.00D+00
 Coeff-Com:  0.238D-03-0.178D-02-0.970D-03-0.220D-02 0.590D-02 0.112D-01
 Coeff-Com:  0.482D-03-0.219D+00 0.317D-01 0.117D+01
 Coeff:      0.238D-03-0.178D-02-0.970D-03-0.220D-02 0.590D-02 0.112D-01
 Coeff:      0.482D-03-0.219D+00 0.317D-01 0.117D+01
 Gap=     0.570 Goal=   None    Shift=    0.000
 Gap=     0.304 Goal=   None    Shift=    0.000
 RMSDP=7.65D-08 MaxDP=1.47D-06 DE=-3.76D-11 OVMax= 9.89D-06

 Cycle  16  Pass 1  IDiag  1:
 RMSU=  1.09D-08    CP:  1.00D+00  1.52D+00  3.00D+00  3.00D+00  2.75D+00
                    CP:  1.83D+00  1.46D+00  1.31D+00  1.91D+00  2.04D+00
 FoFJK:  IHMeth= 1 ICntrl=     0 DoSepK=T KAlg= 1 I1Cent= 0 FoldK=F
 E= -664.252583440347     Delta-E=       -0.000000000049 Rises=F Damp=F
 DIIS: error= 6.47D-07 at cycle  11 NSaved=  11.
 NSaved=11 IEnMin=11 EnMin= -664.252583440347     IErMin=11 ErrMin= 6.47D-07
 ErrMax= 6.47D-07 EMaxC= 1.00D-01 BMatC= 1.26D-11 BMatP= 1.42D-11
 IDIUse=1 WtCom= 1.00D+00 WtEn= 0.00D+00
 Coeff-Com: -0.177D-03 0.173D-02 0.114D-02 0.247D-03-0.500D-02-0.558D-02
 Coeff-Com:  0.766D-02 0.126D+00-0.594D-01-0.810D+00 0.174D+01
 Coeff:     -0.177D-03 0.173D-02 0.114D-02 0.247D-03-0.500D-02-0.558D-02
 Coeff:      0.766D-02 0.126D+00-0.594D-01-0.810D+00 0.174D+01
 Gap=     0.570 Goal=   None    Shift=    0.000
 Gap=     0.304 Goal=   None    Shift=    0.000
 RMSDP=9.72D-08 MaxDP=2.10D-06 DE=-4.88D-11 OVMax= 1.30D-05

 Cycle  17  Pass 1  IDiag  1:
 RMSU=  1.49D-08    CP:  1.00D+00  1.52D+00  3.00D+00  3.00D+00  2.75D+00
                    CP:  1.83D+00  1.46D+00  1.36D+00  2.47D+00  3.00D+00
                    CP:  2.65D+00
 FoFJK:  IHMeth= 1 ICntrl=     0 DoSepK=T KAlg= 1 I1Cent= 0 FoldK=F
 E= -664.252583440408     Delta-E=       -0.000000000061 Rises=F Damp=F
 DIIS: error= 6.39D-07 at cycle  12 NSaved=  12.
 NSaved=12 IEnMin=12 EnMin= -664.252583440408     IErMin=12 ErrMin= 6.39D-07
 ErrMax= 6.39D-07 EMaxC= 1.00D-01 BMatC= 1.24D-11 BMatP= 1.26D-11
 IDIUse=1 WtCom= 1.00D+00 WtEn= 0.00D+00
 Large coefficients: NSaved= 12 BigCof=   14.52 CofMax=   10.00 Det=-5.45D-15
 Inversion failed.  Reducing to 11 matrices.
 Large coefficients: NSaved= 11 BigCof=   12.76 CofMax=   10.00 Det=-6.91D-15
 Inversion failed.  Reducing to 10 matrices.
 Coeff-Com:  0.414D-03 0.367D-02-0.528D-02-0.192D-02-0.249D-01 0.114D-01
 Coeff-Com:  0.163D+00 0.707D+00-0.937D+01 0.952D+01
 Coeff:      0.414D-03 0.367D-02-0.528D-02-0.192D-02-0.249D-01 0.114D-01
 Coeff:      0.163D+00 0.707D+00-0.937D+01 0.952D+01
 Gap=     0.570 Goal=   None    Shift=    0.000
 Gap=     0.304 Goal=   None    Shift=    0.000
 RMSDP=8.09D-07 MaxDP=1.75D-05 DE=-6.06D-11 OVMax= 1.09D-04

 Cycle  18  Pass 1  IDiag  1:
 RMSU=  1.10D-07    CP:  1.00D+00  1.52D+00  3.00D+00  3.00D+00  2.76D+00
                    CP:  1.83D+00  1.49D+00  1.77D+00  3.00D+00  3.00D+00
                    CP:  3.00D+00  3.00D+00
 FoFJK:  IHMeth= 1 ICntrl=     0 DoSepK=T KAlg= 1 I1Cent= 0 FoldK=F
 E= -664.252583440894     Delta-E=       -0.000000000486 Rises=F Damp=F
 DIIS: error= 5.81D-07 at cycle  13 NSaved=  11.
 NSaved=11 IEnMin=11 EnMin= -664.252583440894     IErMin=11 ErrMin= 5.81D-07
 ErrMax= 5.81D-07 EMaxC= 1.00D-01 BMatC= 1.04D-11 BMatP= 1.24D-11
 IDIUse=1 WtCom= 1.00D+00 WtEn= 0.00D+00
 Coeff-Com: -0.805D-03-0.368D-02 0.455D-02 0.128D-01 0.167D-01-0.283D+00
 Coeff-Com:  0.670D-01 0.147D+01-0.106D+01-0.412D+01 0.490D+01
 Coeff:     -0.805D-03-0.368D-02 0.455D-02 0.128D-01 0.167D-01-0.283D+00
 Coeff:      0.670D-01 0.147D+01-0.106D+01-0.412D+01 0.490D+01
 Gap=     0.570 Goal=   None    Shift=    0.000
 Gap=     0.304 Goal=   None    Shift=    0.000
 RMSDP=3.09D-06 MaxDP=6.69D-05 DE=-4.86D-10 OVMax= 4.15D-04

 Cycle  19  Pass 1  IDiag  1:
 RMSU=  1.99D-07    CP:  1.00D+00  1.52D+00  3.00D+00  3.00D+00  2.79D+00
                    CP:  1.86D+00  1.58D+00  3.00D+00  3.00D+00  3.00D+00
                    CP:  3.00D+00  3.00D+00  3.00D+00
 FoFJK:  IHMeth= 1 ICntrl=     0 DoSepK=T KAlg= 1 I1Cent= 0 FoldK=F
 E= -664.252583442329     Delta-E=       -0.000000001436 Rises=F Damp=F
 DIIS: error= 3.60D-07 at cycle  14 NSaved=  12.
 NSaved=12 IEnMin=12 EnMin= -664.252583442329     IErMin=12 ErrMin= 3.60D-07
 ErrMax= 3.60D-07 EMaxC= 1.00D-01 BMatC= 6.17D-12 BMatP= 1.04D-11
 IDIUse=1 WtCom= 1.00D+00 WtEn= 0.00D+00
 Large coefficients: NSaved= 12 BigCof=   14.92 CofMax=   10.00 Det=-7.14D-15
 Inversion failed.  Reducing to 11 matrices.
 Large coefficients: NSaved= 11 BigCof=   13.83 CofMax=   10.00 Det=-7.88D-15
 Inversion failed.  Reducing to 10 matrices.
 Large coefficients: NSaved= 10 BigCof=   11.21 CofMax=   10.00 Det=-8.63D-15
 Inversion failed.  Reducing to  9 matrices.
 Large coefficients: NSaved=  9 BigCof=   11.27 CofMax=   10.00 Det=-8.68D-15
 Inversion failed.  Reducing to  8 matrices.
 Large coefficients: NSaved=  8 BigCof=   11.56 CofMax=   10.00 Det=-8.74D-15
 Inversion failed.  Reducing to  7 matrices.
 Coeff-Com: -0.173D+00 0.495D-01 0.801D+00 0.292D+01-0.727D+01 0.360D+01
 Coeff-Com:  0.107D+01
 Coeff:     -0.173D+00 0.495D-01 0.801D+00 0.292D+01-0.727D+01 0.360D+01
 Coeff:      0.107D+01
 Gap=     0.570 Goal=   None    Shift=    0.000
 Gap=     0.304 Goal=   None    Shift=    0.000
 RMSDP=2.82D-06 MaxDP=6.07D-05 DE=-1.44D-09 OVMax= 3.78D-04

 Cycle  20  Pass 1  IDiag  1:
 RMSU=  2.04D-07    CP:  1.00D+00  1.52D+00  3.00D+00  3.00D+00  2.83D+00
                    CP:  1.90D+00  1.67D+00  3.00D+00  3.00D+00  3.00D+00
                    CP:  3.00D+00  3.00D+00  3.00D+00  2.76D+00
 FoFJK:  IHMeth= 1 ICntrl=     0 DoSepK=T KAlg= 1 I1Cent= 0 FoldK=F
 E= -664.252583443051     Delta-E=       -0.000000000722 Rises=F Damp=F
 DIIS: error= 1.60D-07 at cycle  15 NSaved=   8.
 NSaved= 8 IEnMin= 8 EnMin= -664.252583443051     IErMin= 8 ErrMin= 1.60D-07
 ErrMax= 1.60D-07 EMaxC= 1.00D-01 BMatC= 1.79D-12 BMatP= 6.17D-12
 IDIUse=1 WtCom= 1.00D+00 WtEn= 0.00D+00
 Coeff-Com:  0.110D+00-0.108D-01-0.687D+00 0.260D+01-0.161D+01-0.102D+01
 Coeff-Com:  0.444D+00 0.117D+01
 Coeff:      0.110D+00-0.108D-01-0.687D+00 0.260D+01-0.161D+01-0.102D+01
 Coeff:      0.444D+00 0.117D+01
 Gap=     0.570 Goal=   None    Shift=    0.000
 Gap=     0.304 Goal=   None    Shift=    0.000
 RMSDP=1.88D-06 MaxDP=4.07D-05 DE=-7.22D-10 OVMax= 2.52D-04

 Cycle  21  Pass 1  IDiag  1:
 RMSU=  1.89D-07    CP:  1.00D+00  1.52D+00  3.00D+00  3.00D+00  2.84D+00
                    CP:  1.91D+00  1.73D+00  3.00D+00  3.00D+00  3.00D+00
                    CP:  3.00D+00  3.00D+00  3.00D+00  3.00D+00  1.65D+00
 FoFJK:  IHMeth= 1 ICntrl=     0 DoSepK=T KAlg= 1 I1Cent= 0 FoldK=F
 E= -664.252583443222     Delta-E=       -0.000000000171 Rises=F Damp=F
 DIIS: error= 3.32D-08 at cycle  16 NSaved=   9.
 NSaved= 9 IEnMin= 9 EnMin= -664.252583443222     IErMin= 9 ErrMin= 3.32D-08
 ErrMax= 3.32D-08 EMaxC= 1.00D-01 BMatC= 2.74D-13 BMatP= 1.79D-12
 IDIUse=1 WtCom= 1.00D+00 WtEn= 0.00D+00
 Coeff-Com:  0.664D-01-0.325D-01-0.510D+00 0.129D+01-0.177D-01-0.106D+01
 Coeff-Com:  0.639D-01 0.439D+00 0.768D+00
 Coeff:      0.664D-01-0.325D-01-0.510D+00 0.129D+01-0.177D-01-0.106D+01
 Coeff:      0.639D-01 0.439D+00 0.768D+00
 Gap=     0.570 Goal=   None    Shift=    0.000
 Gap=     0.304 Goal=   None    Shift=    0.000
 RMSDP=2.92D-07 MaxDP=6.33D-06 DE=-1.71D-10 OVMax= 3.91D-05

 Cycle  22  Pass 1  IDiag  1:
 RMSU=  1.40D-09    CP:  1.00D+00  1.52D+00  3.00D+00  3.00D+00  2.84D+00
                    CP:  1.91D+00  1.73D+00  3.00D+00  3.00D+00  3.00D+00
                    CP:  3.00D+00  3.00D+00  3.00D+00  3.00D+00  1.75D+00
                    CP:  1.19D+00
 FoFJK:  IHMeth= 1 ICntrl=     0 DoSepK=T KAlg= 1 I1Cent= 0 FoldK=F
 E= -664.252583443226     Delta-E=       -0.000000000004 Rises=F Damp=F
 DIIS: error= 1.81D-08 at cycle  17 NSaved=  10.
 NSaved=10 IEnMin=10 EnMin= -664.252583443226     IErMin=10 ErrMin= 1.81D-08
 ErrMax= 1.81D-08 EMaxC= 1.00D-01 BMatC= 4.02D-14 BMatP= 2.74D-13
 IDIUse=1 WtCom= 1.00D+00 WtEn= 0.00D+00
 Coeff-Com: -0.902D-02 0.708D-02 0.861D-01-0.675D+00 0.645D+00 0.271D-01
 Coeff-Com: -0.776D-01-0.171D+00 0.180D+00 0.988D+00
 Coeff:     -0.902D-02 0.708D-02 0.861D-01-0.675D+00 0.645D+00 0.271D-01
 Coeff:     -0.776D-01-0.171D+00 0.180D+00 0.988D+00
 Gap=     0.570 Goal=   None    Shift=    0.000
 Gap=     0.304 Goal=   None    Shift=    0.000
 RMSDP=5.62D-08 MaxDP=1.24D-06 DE=-4.21D-12 OVMax= 7.53D-06

 Cycle  23  Pass 1  IDiag  1:
 RMSU=  7.17D-10    CP:  1.00D+00  1.52D+00  3.00D+00  3.00D+00  2.85D+00
                    CP:  1.91D+00  1.73D+00  3.00D+00  3.00D+00  3.00D+00
                    CP:  3.00D+00  3.00D+00  3.00D+00  3.00D+00  1.77D+00
                    CP:  1.23D+00  1.28D+00
 FoFJK:  IHMeth= 1 ICntrl=     0 DoSepK=T KAlg= 1 I1Cent= 0 FoldK=F
 E= -664.252583443227     Delta-E=       -0.000000000001 Rises=F Damp=F
 DIIS: error= 1.05D-08 at cycle  18 NSaved=  11.
 NSaved=11 IEnMin=11 EnMin= -664.252583443227     IErMin=11 ErrMin= 1.05D-08
 ErrMax= 1.05D-08 EMaxC= 1.00D-01 BMatC= 6.04D-15 BMatP= 4.02D-14
 IDIUse=1 WtCom= 1.00D+00 WtEn= 0.00D+00
 Coeff-Com:  0.130D-02 0.120D-02-0.870D-02 0.663D-01-0.107D+00 0.329D-01
 Coeff-Com:  0.290D-01 0.266D-01-0.151D+00-0.380D+00 0.149D+01
 Coeff:      0.130D-02 0.120D-02-0.870D-02 0.663D-01-0.107D+00 0.329D-01
 Coeff:      0.290D-01 0.266D-01-0.151D+00-0.380D+00 0.149D+01
 Gap=     0.570 Goal=   None    Shift=    0.000
 Gap=     0.304 Goal=   None    Shift=    0.000
 RMSDP=1.15D-08 MaxDP=2.62D-07 DE=-9.09D-13 OVMax= 1.52D-06

 Cycle  24  Pass 1  IDiag  1:
 RMSU=  2.59D-10    CP:  1.00D+00  1.52D+00  3.00D+00  3.00D+00  2.85D+00
                    CP:  1.91D+00  1.73D+00  3.00D+00  3.00D+00  3.00D+00
                    CP:  3.00D+00  3.00D+00  3.00D+00  3.00D+00  1.77D+00
                    CP:  1.24D+00  1.42D+00  1.33D+00
 FoFJK:  IHMeth= 1 ICntrl=     0 DoSepK=T KAlg= 1 I1Cent= 0 FoldK=F
 E= -664.252583443227     Delta-E=        0.000000000000 Rises=F Damp=F
 DIIS: error= 6.03D-09 at cycle  19 NSaved=  12.
 NSaved=12 IEnMin=11 EnMin= -664.252583443227     IErMin=12 ErrMin= 6.03D-09
 ErrMax= 6.03D-09 EMaxC= 1.00D-01 BMatC= 2.08D-15 BMatP= 6.04D-15
 IDIUse=1 WtCom= 1.00D+00 WtEn= 0.00D+00
 Coeff-Com:  0.716D-02-0.277D-02-0.466D-01 0.109D+00-0.219D-01-0.682D-01
 Coeff-Com:  0.128D-01 0.347D-01 0.447D-01-0.833D-01-0.916D+00 0.193D+01
 Coeff:      0.716D-02-0.277D-02-0.466D-01 0.109D+00-0.219D-01-0.682D-01
 Coeff:      0.128D-01 0.347D-01 0.447D-01-0.833D-01-0.916D+00 0.193D+01
 Gap=     0.570 Goal=   None    Shift=    0.000
 Gap=     0.304 Goal=   None    Shift=    0.000
 RMSDP=3.50D-09 MaxDP=7.86D-08 DE= 1.14D-13 OVMax= 3.67D-07

 SCF Done:  E(UwB97XD) =  -664.252583443     A.U. after   24 cycles
             Convg  =    0.3505D-08             -V/T =  2.0039
 <Sx>= 0.0000 <Sy>= 0.0000 <Sz>= 0.5000 <S**2>= 0.7527 S= 0.5014
 <L.S>= 0.000000000000E+00
 KE= 6.616717519368D+02 PE=-2.086556683043D+03 EE= 5.079794606812D+02
 Annihilation of the first spin contaminant:
 S**2 before annihilation     0.7527,   after     0.7500
 Leave Link  502 at Wed May  3 09:59:21 2017, MaxMem=   33554432 cpu:     124.9
 (Enter /share/apps/gaussian09/g09/l701.exe)
 Compute integral first derivatives.
 ... and contract with generalized density number  0.
 R6Disp: Adding dispersion energy 1st derivatives to the gradient.
[...]
 <Sx>= 0.0000 <Sy>= 0.0000 <Sz>= 0.5000 <S**2>= 0.7528 S= 0.5014
 <L.S>= 0.000000000000E+00
 KE= 6.616730951140D+02 PE=-2.086580307805D+03 EE= 5.079822502907D+02
 Annihilation of the first spin contaminant:
 S**2 before annihilation     0.7528,   after     0.7500
 Leave Link  502 at Wed May  3 09:59:56 2017, MaxMem=   33554432 cpu:      56.1
 (Enter /share/apps/gaussian09/g09/l701.exe)
 Compute integral first derivatives.
 ... and contract with generalized density number  0.
 R6Disp: Adding dispersion energy 1st derivatives to the gradient.
 Leave Link  701 at Wed May  3 09:59:56 2017, MaxMem=   33554432 cpu:       1.6
 (Enter /share/apps/gaussian09/g09/l702.exe)
 L702 exits ... SP integral derivatives will be done elsewhere.
 Leave Link  702 at Wed May  3 09:59:56 2017, MaxMem=   33554432 cpu:       0.3
 (Enter /share/apps/gaussian09/g09/l703.exe)
 Compute integral first derivatives, UseDBF=F ICtDFT=           0.
 Integral derivatives from FoFDir, PRISM(SPDF).
 Calling FoFJK, ICntrl=      2127 FMM=F ISym2X=0 I1Cent= 0 IOpClX= 1 NMat=1 NMatS=1 NMatT=0.
 FoFJK:  IHMeth= 1 ICntrl=  2127 DoSepK=T KAlg= 1 I1Cent= 0 FoldK=F
 FoFCou: FMM=F IPFlag=           0 FMFlag=      100000 FMFlg1=         800
         NFxFlg=           0 DoJE=F BraDBF=F KetDBF=F FulRan=T
         Omega=  0.000000  0.000000  1.000000  0.000000  0.000000 ICntrl=    2527 IOpCl=  0
         NMat0=    1 NMatS0=    1 NMatT0=    0 NMatD0=    1 NMtDS0=    0 NMtDT0=    0
         I1Cent=           0 NGrid=           0.
 Symmetry not used in FoFCou.
 Leave Link  703 at Wed May  3 09:59:57 2017, MaxMem=   33554432 cpu:       9.3
 (Enter /share/apps/gaussian09/g09/l716.exe)
 Dipole        = 3.26528262D-03 8.42725385D-02 5.59301277D-02
 -------------------------------------------------------------------
 Center     Atomic                   Forces (Hartrees/Bohr)
 Number     Number              X              Y              Z
 -------------------------------------------------------------------
      1       14          -0.000021761    0.000076334   -0.000001921
      2        8           0.000018279   -0.000001916    0.000037974
      3        9           0.000000000    0.000000000    0.000000000
      4        9           0.000000000    0.000000000    0.000000000
      5        9           0.000000000    0.000000000    0.000000000
 -------------------------------------------------------------------
 Cartesian Forces:  Max     0.000076334 RMS     0.000023215
 Leave Link  716 at Wed May  3 09:59:57 2017, MaxMem=   33554432 cpu:       0.3
 (Enter /share/apps/gaussian09/g09/l103.exe)

 GradGradGradGradGradGradGradGradGradGradGradGradGradGradGradGradGradGrad
 Berny optimization.
 Using GEDIIS/GDIIS optimizer.
 Internal  Forces:  Max     0.000036786 RMS     0.000018663
 Search for a local minimum.
 Step number   5 out of a maximum of   33
 All quantities printed in internal units (Hartrees-Bohrs-Radians)
 RMS Force = .19993D-04 SwitMx=.10000D-02 MixMth= 2
 Mixed Optimization -- En-DIIS/RFO-DIIS
 Swaping is turned off.
 Update second derivatives using D2CorX and points    1    2    3    4    5
 DE= -5.38D-07 DEPred=-5.09D-07 R= 1.06D+00
 Trust test= 1.06D+00 RLast= 4.16D-03 DXMaxT set to 3.00D-01
 ITU=  0  1  1  1  0
     Eigenvalues ---    0.04666   0.16075   0.19316   0.37966   0.42695
     Eigenvalues ---    0.448361000.000001000.000001000.000001000.00000
     Eigenvalues --- 1000.000001000.000001000.000001000.000001000.00000
     Eigenvalues --- 1000.000001000.000001000.000001000.000001000.00000
     Eigenvalues --- 1000.000001000.000001000.00000
 En-DIIS/RFO-DIIS IScMMF=        0 using points:     5    4    3
 RFO step:  Lambda=-1.18210768D-08.
 DidBck=F Rises=F RFO-DIIS coefs:    1.58958   -1.21560    0.62602
 Iteration  1 RMS(Cart)=  0.00019741 RMS(Int)=  0.00000010
 Iteration  2 RMS(Cart)=  0.00000003 RMS(Int)=  0.00000010
 Variable       Old X    -DE/DX   Delta X   Delta X   Delta X     New X
                                  (DIIS)     (GDIIS)  (Total)
    X3       -2.25904  -0.00001   0.00000   0.00000   0.00000  -2.25904
    Y3       -2.11562   0.00003   0.00000   0.00000   0.00000  -2.11562
    Z3       -2.17653   0.00001   0.00000   0.00000   0.00000  -2.17653
    X4       -2.35237   0.00000   0.00000   0.00000   0.00000  -2.35237
    Y4        2.07631   0.00003   0.00000   0.00000   0.00000   2.07631
    Z4       -4.78660   0.00001   0.00000   0.00000   0.00000  -4.78660
    X5       -6.33818   0.00000   0.00000   0.00000   0.00000  -6.33818
    Y5        0.66491   0.00002   0.00000   0.00000   0.00000   0.66491
    Z5       -2.34996   0.00001   0.00000   0.00000   0.00000  -2.34996
    R1        3.13902   0.00004   0.00015  -0.00007   0.00008   3.13909
    R2        3.02492   0.00003   0.00010   0.00005   0.00015   3.02507
    R3        3.02790   0.00000   0.00000   0.00004   0.00004   3.02794
    R4        3.02865   0.00000   0.00001   0.00003   0.00004   3.02870
    A1        1.85159   0.00000  -0.00028   0.00004  -0.00024   1.85135
    A2        1.95911   0.00002   0.00019   0.00006   0.00025   1.95936
    A3        1.96103   0.00002   0.00018   0.00001   0.00019   1.96122
    A4        1.90884  -0.00001  -0.00005  -0.00004  -0.00009   1.90875
    A5        1.90891  -0.00002  -0.00005  -0.00004  -0.00009   1.90882
    A6        1.87393   0.00000  -0.00001  -0.00003  -0.00004   1.87390
    D1        2.05012   0.00000  -0.00026   0.00005  -0.00020   2.04992
    D2       -2.05133   0.00000   0.00027  -0.00003   0.00024  -2.05109
    D3        2.16231   0.00003   0.00036   0.00006   0.00042   2.16273
    D4       -2.06954   0.00003   0.00009   0.00009   0.00018  -2.06936
         Item               Value     Threshold  Converged?
 Maximum Force            0.000037     0.000450     YES
 RMS     Force            0.000020     0.000300     YES
 Maximum Displacement     0.000624     0.001800     YES
 RMS     Displacement     0.000197     0.001200     YES
 Predicted change in Energy=-1.116983D-08
 Optimization completed.
    -- Stationary point found.
                           ----------------------------
                           !   Optimized Parameters   !
                           ! (Angstroms and Degrees)  !
 --------------------------                            --------------------------
 ! Name  Definition              Value          Derivative Info.                !
 --------------------------------------------------------------------------------
 ! X3    R(3,-1)                -1.1954         -DE/DX =    0.0                 !
 ! Y3    R(3,-2)                -1.1195         -DE/DX =    0.0                 !
 ! Z3    R(3,-3)                -1.1518         -DE/DX =    0.0                 !
 ! X4    R(4,-1)                -1.2448         -DE/DX =    0.0                 !
 ! Y4    R(4,-2)                 1.0987         -DE/DX =    0.0                 !
 ! Z4    R(4,-3)                -2.533          -DE/DX =    0.0                 !
 ! X5    R(5,-1)                -3.354          -DE/DX =    0.0                 !
 ! Y5    R(5,-2)                 0.3519         -DE/DX =    0.0                 !
 ! Z5    R(5,-3)                -1.2435         -DE/DX =    0.0                 !
 ! R1    R(1,2)                  1.6611         -DE/DX =    0.0                 !
 ! R2    R(1,3)                  1.6007         -DE/DX =    0.0                 !
 ! R3    R(1,4)                  1.6023         -DE/DX =    0.0                 !
 ! R4    R(1,5)                  1.6027         -DE/DX =    0.0                 !
 ! A1    A(2,1,3)              106.0882         -DE/DX =    0.0                 !
 ! A2    A(2,1,4)              112.2488         -DE/DX =    0.0                 !
 ! A3    A(2,1,5)              112.3585         -DE/DX =    0.0                 !
 ! A4    A(3,1,4)              109.3688         -DE/DX =    0.0                 !
 ! A5    A(3,1,5)              109.3727         -DE/DX =    0.0                 !
 ! A6    A(4,1,5)              107.3684         -DE/DX =    0.0                 !
 ! D1    D(2,1,4,3)            117.4633         -DE/DX =    0.0                 !
 ! D2    D(2,1,5,3)           -117.5327         -DE/DX =    0.0                 !
 ! D3    D(2,1,5,4)            123.8913         -DE/DX =    0.0                 !
 ! D4    D(3,1,5,4)           -118.576          -DE/DX =    0.0                 !
 --------------------------------------------------------------------------------
 GradGradGradGradGradGradGradGradGradGradGradGradGradGradGradGradGradGrad

 Largest change from initial coordinates is atom    2       0.000 Angstoms.
 Leave Link  103 at Wed May  3 09:59:57 2017, MaxMem=   33554432 cpu:       0.0
 (Enter /share/apps/gaussian09/g09/l202.exe)
                          Input orientation:                          
 ---------------------------------------------------------------------
 Center     Atomic      Atomic             Coordinates (Angstroms)
 Number     Number       Type             X           Y           Z
 ---------------------------------------------------------------------
      1         14           0       -1.752361    0.380588   -1.193552
      2          8           0       -1.176141    1.123831    0.175682
      3          9           0       -1.195433   -1.119540   -1.151769
      4          9           0       -1.244818    1.098738   -2.532962
      5          9           0       -3.354018    0.351855   -1.243545
 ---------------------------------------------------------------------
                    Distance matrix (angstroms):
                    1          2          3          4          5
     1  Si   0.000000
     2  O    1.661097   0.000000
     3  F    1.600718   2.606763   0.000000
     4  F    1.602298   2.709631   2.613597   0.000000
     5  F    1.602695   2.711697   2.613985   2.582471   0.000000
 Symmetry turned off by external request.
 Stoichiometry    F3OSi(2)
 Framework group  C1[X(F3OSi)]
 Deg. of freedom     9
 Full point group                 C1      NOp   1
 Rotational constants (GHZ):      4.1277614      3.9865958      3.8567105
 Leave Link  202 at Wed May  3 09:59:57 2017, MaxMem=   33554432 cpu:       0.0
 (Enter /share/apps/gaussian09/g09/l601.exe)
 Copying SCF densities to generalized density rwf, IOpCl= 1 IROHF=0.

 **********************************************************************

            Population analysis using the SCF density.

 **********************************************************************

 Alpha  occ. eigenvalues --  -66.46696 -24.86937 -24.86526 -24.86519 -19.37080
 Alpha  occ. eigenvalues --   -5.56302  -3.90967  -3.90883  -3.90717  -1.36234
 Alpha  occ. eigenvalues --   -1.33635  -1.33258  -1.16059  -0.69982  -0.63435
 Alpha  occ. eigenvalues --   -0.62708  -0.61134  -0.58168  -0.57388  -0.56752
 Alpha  occ. eigenvalues --   -0.55402  -0.54261  -0.53653  -0.53350  -0.49299
 Alpha virt. eigenvalues --    0.07370   0.14442   0.15485   0.16097   0.29086
 Alpha virt. eigenvalues --    0.29780   0.30939   0.31924   0.49572   0.50719
 Alpha virt. eigenvalues --    0.52171   0.60443   0.60563   0.68815   0.85644
 Alpha virt. eigenvalues --    0.86393   0.89758   1.26649   1.26856   1.30647
 Alpha virt. eigenvalues --    1.30952   1.30969   1.31387   1.32685   1.32976
 Alpha virt. eigenvalues --    1.38820   1.48098   1.48371   1.56085   2.13480
 Alpha virt. eigenvalues --    2.13635   2.25511   2.57472   2.59926   2.60175
 Alpha virt. eigenvalues --    2.62290   2.65260   2.73099   2.76484   2.91597
 Alpha virt. eigenvalues --    3.20870   9.75276  43.10776
  Beta  occ. eigenvalues --  -66.46713 -24.86853 -24.86512 -24.86506 -19.34982
  Beta  occ. eigenvalues --   -5.56323  -3.90978  -3.90901  -3.90754  -1.36110
  Beta  occ. eigenvalues --   -1.33486  -1.33222  -1.08496  -0.69590  -0.62642
  Beta  occ. eigenvalues --   -0.62622  -0.60255  -0.57277  -0.57263  -0.55196
  Beta  occ. eigenvalues --   -0.55135  -0.53270  -0.52217  -0.46678
  Beta virt. eigenvalues --   -0.16214   0.07877   0.15432   0.15688   0.16931
  Beta virt. eigenvalues --    0.29372   0.29700   0.31286   0.32013   0.50070
  Beta virt. eigenvalues --    0.52755   0.54595   0.60447   0.61176   0.69894
  Beta virt. eigenvalues --    0.85764   0.86436   0.90560   1.26715   1.26844
  Beta virt. eigenvalues --    1.30664   1.31030   1.31238   1.31417   1.32810
  Beta virt. eigenvalues --    1.32998   1.38881   1.48187   1.48390   1.56200
  Beta virt. eigenvalues --    2.13650   2.14197   2.25581   2.63970   2.66791
  Beta virt. eigenvalues --    2.67105   2.68451   2.69732   2.78278   2.81071
  Beta virt. eigenvalues --    2.95082   3.24597   9.75281  43.13401
          Condensed to atoms (all electrons):
              1          2          3          4          5
     1  Si  11.533045   0.330393   0.350882   0.354765   0.354667
     2  O    0.330393   7.905688  -0.008022  -0.010339  -0.010336
     3  F    0.350882  -0.008022   8.956426  -0.005824  -0.005822
     4  F    0.354765  -0.010339  -0.005824   8.959126  -0.007250
     5  F    0.354667  -0.010336  -0.005822  -0.007250   8.959485
 Mulliken atomic charges:
              1
     1  Si   1.076248
     2  O   -0.207384
     3  F   -0.287640
     4  F   -0.290479
     5  F   -0.290744
 Sum of Mulliken atomic charges =   0.00000
 Mulliken charges with hydrogens summed into heavy atoms:
              1
     1  Si   1.076248
     2  O   -0.207384
     3  F   -0.287640
     4  F   -0.290479
     5  F   -0.290744
 Sum of Mulliken charges with hydrogens summed into heavy atoms =   0.00000
          Atomic-Atomic Spin Densities.
              1          2          3          4          5
     1  Si  -0.017824   0.012689  -0.004693  -0.000167  -0.000126
     2  O    0.012689   0.969465  -0.005210  -0.000552  -0.000516
     3  F   -0.004693  -0.005210   0.034012  -0.000043  -0.000042
     4  F   -0.000167  -0.000552  -0.000043   0.005902   0.000050
     5  F   -0.000126  -0.000516  -0.000042   0.000050   0.005664
 Mulliken atomic spin densities:
              1
     1  Si  -0.010121
     2  O    0.975876
     3  F    0.024024
     4  F    0.005191
     5  F    0.005030
 Sum of Mulliken atomic spin densities =   1.00000
 Electronic spatial extent (au):  <R**2>=           1222.1837
 Charge=              0.0000 electrons
 Dipole moment (field-independent basis, Debye):
    X=              0.0083    Y=              0.2142    Z=              0.1422  Tot=              0.2572
 Quadrupole moment (field-independent basis, Debye-Ang):
   XX=            -33.8350   YY=            -32.5628   ZZ=            -34.2503
   XY=             -0.7322   XZ=             -0.3028   YZ=             -0.1192
 Traceless Quadrupole moment (field-independent basis, Debye-Ang):
   XX=             -0.2856   YY=              0.9866   ZZ=             -0.7010
   XY=             -0.7322   XZ=             -0.3028   YZ=             -0.1192
 Octapole moment (field-independent basis, Debye-Ang**2):
  XXX=            181.8550  YYY=            -32.3221  ZZZ=            118.6610  XYY=             52.9513
  XXY=            -11.4869  XXZ=             40.1172  XZZ=             57.0257  YZZ=            -17.7399
  YYZ=             38.3054  XYZ=              0.1598
 Hexadecapole moment (field-independent basis, Debye-Ang**3):
 XXXX=           -786.0723 YYYY=           -147.1647 ZZZZ=           -422.2360 XXXY=             65.6704
 XXXZ=           -218.7958 YYYX=             52.8001 YYYZ=             37.3620 ZZZX=           -200.8888
 ZZZY=             59.2337 XXYY=           -133.7641 XXZZ=           -185.5965 YYZZ=            -98.8382
 XXYZ=             14.1259 YYXZ=            -64.6438 ZZXY=             27.7327
 N-N= 2.526722159217D+02 E-N=-3.120340649078D+03  KE= 9.911172410652D+02
                          Isotropic Fermi Contact Couplings
        Atom                 a.u.       MegaHertz       Gauss      10(-4) cm-1
     1  Si(29)            -0.05386      47.87077      17.08148      15.96797
     2  O(17)              0.06806     -41.25754     -14.72171     -13.76203
     3  F(19)              0.00693      29.17523      10.41045       9.73181
     4  F(19)             -0.00053      -2.23497      -0.79749      -0.74551
     5  F(19)             -0.00059      -2.47029      -0.88146      -0.82400
 --------------------------------------------------------
       Center         ----  Spin Dipole Couplings  ----
                      3XX-RR        3YY-RR        3ZZ-RR
 --------------------------------------------------------
     1   Atom       -0.007885      0.006842      0.001042
     2   Atom       -0.724105      2.224870     -1.500765
     3   Atom       -0.087049      0.035442      0.051607
     4   Atom       -0.018949      0.006331      0.012618
     5   Atom       -0.013597      0.033908     -0.020310
 --------------------------------------------------------
                        XY            XZ            YZ
 --------------------------------------------------------
     1   Atom       -0.009093      0.012127     -0.000565
     2   Atom       -2.090079      0.578277     -1.136404
     3   Atom        0.038536      0.041284      0.141274
     4   Atom       -0.013587     -0.018550      0.035294
     5   Atom        0.025629      0.006045      0.019877
 --------------------------------------------------------


 ---------------------------------------------------------------------------------
              Anisotropic Spin Dipole Couplings in Principal Axis System
 ---------------------------------------------------------------------------------

       Atom             a.u.   MegaHertz   Gauss  10(-4) cm-1        Axes

              Baa    -0.0185     1.957     0.698     0.653  0.8181  0.2829 -0.5007
     1 Si(29) Bbb     0.0038    -0.400    -0.143    -0.133  0.1894  0.6895  0.6991
              Bcc     0.0147    -1.557    -0.556    -0.519 -0.5430  0.6668 -0.5104
 
              Baa    -1.8233   131.934    47.077    44.009  0.3520  0.4170  0.8380
     2 O(17)  Bbb    -1.8020   130.395    46.528    43.495  0.8228  0.2890 -0.4894
              Bcc     3.6254  -262.329   -93.606   -87.504 -0.4462  0.8618 -0.2414
 
              Baa    -0.0985   -49.471   -17.653   -16.502  0.8349  0.2673 -0.4812
     3 F(19)  Bbb    -0.0978   -49.108   -17.523   -16.381 -0.5146  0.6894 -0.5098
              Bcc     0.1963    98.580    35.176    32.883  0.1955  0.6732  0.7131
 
              Baa    -0.0285   -14.319    -5.109    -4.776  0.6976 -0.3572  0.6211
     4 F(19)  Bbb    -0.0237   -11.925    -4.255    -3.978  0.6479  0.6846 -0.3340
              Bcc     0.0523    26.243     9.364     8.754 -0.3059  0.6354  0.7090
 
              Baa    -0.0280   -14.047    -5.012    -4.686  0.4526 -0.4371  0.7772
     5 F(19)  Bbb    -0.0231   -11.602    -4.140    -3.870  0.8084 -0.1666 -0.5645
              Bcc     0.0511    25.649     9.152     8.556  0.3763  0.8838  0.2780
 

 ---------------------------------------------------------------------------------

 No NMR shielding tensors so no spin-rotation constants.
 Leave Link  601 at Wed May  3 09:59:58 2017, MaxMem=   33554432 cpu:       2.2
 (Enter /share/apps/gaussian09/g09/l9999.exe)
 1\1\GINC-COMPUTE-0-1\FOpt\UwB97XD\Gen\F3O1Si1(2)\CRAIGV\03-May-2017\0\
 \#p wb97xd/gen nosymm geom=connectivity opt\\Title Card Required\\0,2\
 Si,-1.7523606745,0.3805882672,-1.1935519511\O,-1.176141072,1.123831477
 ,0.175682328\F,-1.195433,-1.11954,-1.151769\F,-1.244818,1.098738,-2.53
 2962\F,-3.354018,0.351855,-1.243545\\Version=EM64L-G09RevC.01\HF=-664.
 2527465\S2=0.752766\S2-1=0.\S2A=0.750006\RMSD=7.610e-09\RMSF=2.321e-05
 \Dipole=0.0032653,0.0842725,0.0559301\Quadrupole=-0.212341,0.733491,-0
 .5211499,-0.5443594,-0.2251504,-0.0886104\PG=C01 [X(F3O1Si1)]\\@


 CONFIDENCE: THAT QUIET ASSURED FEELING YOU HAVE
 JUST BEFORE YOU FALL FLAT ON YOUR FACE.
 Job cpu time:  0 days  0 hours  9 minutes 27.5 seconds.
 File lengths (MBytes):  RWF=      9 Int=      0 D2E=      0 Chk=      1 Scr=      1
 Normal termination of Gaussian 09 at Wed May  3 09:59:58 2017.
