 Entering Gaussian System, Link 0=/sw/chem/g09/g09
 Initial command:
 /sw/chem/g09/l1.exe "/scratch_local/craigv/5VRigidFreq/Gau-12966.inp" -scrdir="/scratch_local/craigv/5VRigidFreq/"
 Entering Link 1 = /sw/chem/g09/l1.exe PID=     12967.
  
 Copyright (c) 1988,1990,1992,1993,1995,1998,2003,2009,2013,
            Gaussian, Inc.  All Rights Reserved.
  
 This is part of the Gaussian(R) 09 program.  It is based on
 the Gaussian(R) 03 system (copyright 2003, Gaussian, Inc.),
 the Gaussian(R) 98 system (copyright 1998, Gaussian, Inc.),
 the Gaussian(R) 94 system (copyright 1995, Gaussian, Inc.),
 the Gaussian 92(TM) system (copyright 1992, Gaussian, Inc.),
 the Gaussian 90(TM) system (copyright 1990, Gaussian, Inc.),
 the Gaussian 88(TM) system (copyright 1988, Gaussian, Inc.),
 the Gaussian 86(TM) system (copyright 1986, Carnegie Mellon
 University), and the Gaussian 82(TM) system (copyright 1983,
 Carnegie Mellon University). Gaussian is a federally registered
 trademark of Gaussian, Inc.
  
 This software contains proprietary and confidential information,
 including trade secrets, belonging to Gaussian, Inc.
  
 This software is provided under written license and may be
 used, copied, transmitted, or stored only in accord with that
 written license.
  
 The following legend is applicable only to US Government
 contracts under FAR:
  
                    RESTRICTED RIGHTS LEGEND
  
 Use, reproduction and disclosure by the US Government is
 subject to restrictions as set forth in subparagraphs (a)
 and (c) of the Commercial Computer Software - Restricted
 Rights clause in FAR 52.227-19.
  
 Gaussian, Inc.
 340 Quinnipiac St., Bldg. 40, Wallingford CT 06492
  
  
 ---------------------------------------------------------------
 Warning -- This program may not be used in any manner that
 competes with the business of Gaussian, Inc. or will provide
 assistance to any competitor of Gaussian, Inc.  The licensee
 of this program is prohibited from giving any competitor of
 Gaussian, Inc. access to this program.  By using this program,
 the user acknowledges that Gaussian, Inc. is engaged in the
 business of creating and licensing software in the field of
 computational chemistry and represents and warrants to the
 licensee that it is not a competitor of Gaussian, Inc. and that
 it will not use this program in any manner prohibited above.
 ---------------------------------------------------------------
  

 Cite this work as:
 Gaussian 09, Revision D.01,
 M. J. Frisch, G. W. Trucks, H. B. Schlegel, G. E. Scuseria, 
 M. A. Robb, J. R. Cheeseman, G. Scalmani, V. Barone, B. Mennucci, 
 G. A. Petersson, H. Nakatsuji, M. Caricato, X. Li, H. P. Hratchian, 
 A. F. Izmaylov, J. Bloino, G. Zheng, J. L. Sonnenberg, M. Hada, 
 M. Ehara, K. Toyota, R. Fukuda, J. Hasegawa, M. Ishida, T. Nakajima, 
 Y. Honda, O. Kitao, H. Nakai, T. Vreven, J. A. Montgomery, Jr., 
 J. E. Peralta, F. Ogliaro, M. Bearpark, J. J. Heyd, E. Brothers, 
 K. N. Kudin, V. N. Staroverov, T. Keith, R. Kobayashi, J. Normand, 
 K. Raghavachari, A. Rendell, J. C. Burant, S. S. Iyengar, J. Tomasi, 
 M. Cossi, N. Rega, J. M. Millam, M. Klene, J. E. Knox, J. B. Cross, 
 V. Bakken, C. Adamo, J. Jaramillo, R. Gomperts, R. E. Stratmann, 
 O. Yazyev, A. J. Austin, R. Cammi, C. Pomelli, J. W. Ochterski, 
 R. L. Martin, K. Morokuma, V. G. Zakrzewski, G. A. Voth, 
 P. Salvador, J. J. Dannenberg, S. Dapprich, A. D. Daniels, 
 O. Farkas, J. B. Foresman, J. V. Ortiz, J. Cioslowski, 
 and D. J. Fox, Gaussian, Inc., Wallingford CT, 2013.
 
 ******************************************
 Gaussian 09:  ES64L-G09RevD.01 24-Apr-2013
                24-Aug-2017 
 ******************************************
 %nprocshared=12
 Will use up to   12 processors via shared memory.
 ----------------------------------------------------------------------
 #p wb97xd/gen nosymm freq temp=373.15 punch=derivatives int=grid=ultra
 fine
 ----------------------------------------------------------------------
 1/10=4,30=1,38=1,112=373150/1,3;
 2/12=2,15=1,17=6,18=5,40=1/2;
 3/5=7,11=2,16=1,25=1,30=1,71=2,74=-58,75=-5,140=1/1,2,3;
 4//1;
 5/5=2,38=5,98=1/2;
 8/6=4,10=90,11=11/1;
 11/6=1,8=1,9=11,15=111,16=1,31=1/1,2,10;
 10/6=1,31=1/2;
 6/7=2,8=2,9=2,10=2,18=1,28=1/1;
 7/8=1,10=1,25=1,30=1/1,2,3,16;
 1/10=4,30=1/3;
 99/10=4/99;
 Leave Link    1 at Thu Aug 24 15:54:07 2017, MaxMem=           0 cpu:         0.5
 (Enter /sw/chem/g09/l101.exe)
 ------
 CrSite
 ------
 Symbolic Z-matrix:
 Charge =  0 Multiplicity = 5
 Cr                   -0.09547   2.71699   3.39567 
 O                     0.90334   2.77146   1.88225 
 O                    -1.83253   2.76747   2.87523 
 O                    -1.14748   3.82366   0.50291 
 Si                   -2.37186   3.50967   1.54169 
 Si                    0.4525    3.4804    0.49922 
 C                     0.30341   4.34544   4.44741 
 C                     0.01469   5.64535   3.70748 
 H                     1.36744   4.25526   4.71007 
 H                    -0.29107   4.26131   5.36869 
 C                     0.38932   6.89109   4.52265 
 H                     0.57243   5.66788   2.76645 
 H                    -1.0455    5.69652   3.44948 
 C                     1.84558   7.00799   4.78786 
 H                     0.03902   7.77568   3.96869 
 H                    -0.16945   6.89614   5.46425 
 H                     2.21708   7.56021   5.64066 
 H                     2.56175   6.68588   4.04075 
 F(Iso=100000000)     -3.09089   4.91474   1.90855 
 F(Iso=100000000)     -3.49475   2.624     0.78874 
 F(Iso=100000000)      0.78282   2.53808  -0.77104 
 F(Iso=100000000)      1.26734   4.85953   0.25203 
 
 NAtoms=     22 NQM=       22 NQMF=       0 NMMI=      0 NMMIF=      0
                NMic=       0 NMicF=      0.
                    Isotopes and Nuclear Properties:
 (Nuclear quadrupole moments (NQMom) in fm**2, nuclear magnetic moments (NMagM)
  in nuclear magnetons)

  Atom         1           2           3           4           5           6           7           8           9          10
 IAtWgt=          52          16          16          16          28          28          12          12           1           1
 AtmWgt=  51.9405097  15.9949146  15.9949146  15.9949146  27.9769284  27.9769284  12.0000000  12.0000000   1.0078250   1.0078250
 NucSpn=           0           0           0           0           0           0           0           0           1           1
 AtZEff=   0.0000000   0.0000000   0.0000000   0.0000000   0.0000000   0.0000000   0.0000000   0.0000000   0.0000000   0.0000000
 NQMom=    0.0000000   0.0000000   0.0000000   0.0000000   0.0000000   0.0000000   0.0000000   0.0000000   0.0000000   0.0000000
 NMagM=    0.0000000   0.0000000   0.0000000   0.0000000   0.0000000   0.0000000   0.0000000   0.0000000   2.7928460   2.7928460
 AtZNuc=  24.0000000   8.0000000   8.0000000   8.0000000  14.0000000  14.0000000   6.0000000   6.0000000   1.0000000   1.0000000

  Atom        11          12          13          14          15          16          17          18          19          20
 IAtWgt=          12           1           1          12           1           1           1           1   100000000   100000000
 AtmWgt=  12.0000000   1.0078250   1.0078250  12.0000000   1.0078250   1.0078250   1.0078250   1.0078250************************
 NucSpn=           0           1           1           0           1           1           1           1           0           0
 AtZEff=   0.0000000   0.0000000   0.0000000   0.0000000   0.0000000   0.0000000   0.0000000   0.0000000   0.0000000   0.0000000
 NQMom=    0.0000000   0.0000000   0.0000000   0.0000000   0.0000000   0.0000000   0.0000000   0.0000000   0.0000000   0.0000000
 NMagM=    0.0000000   2.7928460   2.7928460   0.0000000   2.7928460   2.7928460   2.7928460   2.7928460   0.0000000   0.0000000
 AtZNuc=   6.0000000   1.0000000   1.0000000   6.0000000   1.0000000   1.0000000   1.0000000   1.0000000   9.0000000   9.0000000

  Atom        21          22
 IAtWgt=   100000000   100000000
 AtmWgt=************************
 NucSpn=           0           0
 AtZEff=   0.0000000   0.0000000
 NQMom=    0.0000000   0.0000000
 NMagM=    0.0000000   0.0000000
 AtZNuc=   9.0000000   9.0000000
 Leave Link  101 at Thu Aug 24 15:54:07 2017, MaxMem=    33554432 cpu:         0.8
 (Enter /sw/chem/g09/l103.exe)

 GradGradGradGradGradGradGradGradGradGradGradGradGradGradGradGradGradGrad
 Berny optimization.
 Initialization pass.
 Trust Radius=3.00D-01 FncErr=1.00D-07 GrdErr=1.00D-07
 Number of steps in this run=      2 maximum allowed number of steps=      2.
 GradGradGradGradGradGradGradGradGradGradGradGradGradGradGradGradGradGrad

 Leave Link  103 at Thu Aug 24 15:54:07 2017, MaxMem=    33554432 cpu:         0.2
 (Enter /sw/chem/g09/l202.exe)
                          Input orientation:                          
 ---------------------------------------------------------------------
 Center     Atomic      Atomic             Coordinates (Angstroms)
 Number     Number       Type             X           Y           Z
 ---------------------------------------------------------------------
      1         24           0       -0.095472    2.716987    3.395667
      2          8           0        0.903341    2.771463    1.882251
      3          8           0       -1.832528    2.767467    2.875230
      4          8           0       -1.147483    3.823658    0.502908
      5         14           0       -2.371855    3.509670    1.541693
      6         14           0        0.452501    3.480397    0.499218
      7          6           0        0.303414    4.345444    4.447414
      8          6           0        0.014688    5.645347    3.707483
      9          1           0        1.367439    4.255264    4.710071
     10          1           0       -0.291067    4.261305    5.368692
     11          6           0        0.389316    6.891094    4.522651
     12          1           0        0.572429    5.667879    2.766446
     13          1           0       -1.045500    5.696520    3.449478
     14          6           0        1.845579    7.007992    4.787856
     15          1           0        0.039020    7.775676    3.968687
     16          1           0       -0.169451    6.896138    5.464254
     17          1           0        2.217084    7.560210    5.640662
     18          1           0        2.561751    6.685877    4.040751
     19          9           0       -3.090888    4.914737    1.908546
     20          9           0       -3.494745    2.623997    0.788738
     21          9           0        0.782815    2.538077   -0.771037
     22          9           0        1.267339    4.859529    0.252034
 ---------------------------------------------------------------------
                    Distance matrix (angstroms):
                    1          2          3          4          5
     1  Cr   0.000000
     2  O    1.814118   0.000000
     3  O    1.814047   2.910499   0.000000
     4  O    3.271009   2.686183   2.685654   0.000000
     5  Si   3.040968   3.374587   1.618660   1.636077   0.000000
     6  Si   3.045076   1.618216   3.372693   1.636396   3.010747
     7  C    1.979180   3.068777   3.086101   4.235149   4.037177
     8  C    2.946974   3.518577   3.519523   3.865035   3.866180
     9  H    2.496810   3.227014   3.977433   4.920502   4.957504
    10  H    2.513166   3.975111   3.290138   4.959923   4.420470
    11  C    4.350664   4.920091   4.965369   5.284813   5.286228
    12  H    3.090271   3.046396   3.769356   3.388636   3.850545
    13  H    3.127789   3.848394   3.086831   3.492891   3.190795
    14  C    4.911068   5.222885   5.930317   6.120391   6.368876
    15  H    5.092816   5.490211   5.457151   5.388679   5.468220
    16  H    4.663671   5.567277   5.149252   5.917063   5.630740
    17  H    5.817622   6.227654   6.856920   7.188786   7.366599
    18  H    4.819653   4.767817   6.001838   5.870864   6.377621
    19  F    4.001768   4.533010   2.669966   2.634975   1.620433
    20  F    4.284832   4.534388   2.671516   2.651514   1.616243
    21  F    4.262021   2.666258   4.493095   2.646073   4.030466
    22  F    4.041060   2.673971   4.568047   2.639570   4.090119
                    6          7          8          9         10
     6  Si   0.000000
     7  C    4.044599   0.000000
     8  C    3.895081   1.523354   0.000000
     9  H    4.378220   1.099668   2.183449   0.000000
    10  H    4.987433   1.099655   2.183729   1.784506   0.000000
    11  C    5.274927   2.548210   1.535165   2.817703   2.845083
    12  H    3.152742   2.155657   1.094136   2.530850   3.081519
    13  H    3.982366   2.154264   1.092330   3.080355   2.512448
    14  C    5.725121   3.095696   2.525108   2.795028   3.528019
    15  H    5.536931   3.473554   2.146421   3.835055   3.797338
    16  H    6.058522   2.786325   2.164401   3.147227   2.639369
    17  H    6.796549   3.926919   3.500633   3.537028   4.153019
    18  H    5.221733   3.277665   2.771516   2.789668   3.972474
    19  F    4.074204   4.276825   3.662590   5.306612   4.498731
    20  F    4.049444   5.547549   5.473915   6.455906   5.824114
    21  F    1.615742   5.543341   5.504751   5.773479   6.466762
    22  F    1.620823   4.335279   3.758560   4.499917   5.382071
                   11         12         13         14         15
    11  C    0.000000
    12  H    2.148032   0.000000
    13  H    2.153463   1.756430   0.000000
    14  C    1.484823   2.739144   3.445222   0.000000
    15  H    1.100940   2.484495   2.401802   2.126977   0.000000
    16  H    1.094926   3.055679   2.503171   2.128467   1.747503
    17  H    2.244638   3.814043   4.349607   1.081776   2.754249
    18  H    2.234685   2.572465   3.786910   1.083894   2.749005
    19  F    4.780309   3.837070   2.677549   6.086119   4.714390
    20  F    6.872856   5.451463   4.745391   7.983196   7.009948
    21  F    6.864891   4.727971   5.579538   7.211858   7.102863
    22  F    4.810026   2.731043   4.034034   5.052122   4.881208
                   16         17         18         19         20
    16  H    0.000000
    17  H    2.483478   0.000000
    18  H    3.087075   1.855524   0.000000
    19  F    5.010370   7.007267   6.295678   0.000000
    20  F    7.153266   8.973982   7.984710   2.581581   0.000000
    21  F    7.666705   8.269754   6.597133   5.275818   4.553877
    22  F    5.777489   6.101885   4.400617   4.662748   5.288015
                   21         22
    21  F    0.000000
    22  F    2.582746   0.000000
 Symmetry turned off by external request.
 Stoichiometry    C4H8CrF4O3Si2(5)
 Framework group  C1[X(C4H8CrF4O3Si2)]
 Deg. of freedom    60
 Full point group                 C1      NOp   1
 Rotational constants (GHZ):      0.0000008      0.0000002      0.0000002
 Leave Link  202 at Thu Aug 24 15:54:08 2017, MaxMem=    33554432 cpu:         0.1
 (Enter /sw/chem/g09/l301.exe)
 General basis read from cards:  (5D, 7F)
 Centers:       1
 def2TZVP
 ****
 Centers:       9     10     12     13     15     16     17     18      7      8
 Centers:      11     14      2      3      4      5      6
 TZVP
 ****
 Centers:      19     20     21     22
 6-31G
 ****
 Ernie: Thresh=  0.10000D-02 Tol=  0.10000D-05 Strict=F.
   306 basis functions,   593 primitive gaussians,   322 cartesian basis functions
    74 alpha electrons       70 beta electrons
       nuclear repulsion energy      1624.5326082897 Hartrees.
 IExCor= 4639 DFT=T Ex+Corr=wB97XD ExCW=0 ScaHFX=  1.000000
 ScaDFX=  1.000000  1.000000  1.000000  1.000000 ScalE2=  1.000000  1.000000
 IRadAn=      5 IRanWt=     -1 IRanGd=            0 ICorTp=0 IEmpDi=121
  HFx wShort=  0.000000 wLong=  0.200000 cFull=  0.222036 cShort=  0.000000 cLong=  0.777964
  DFx wShort=  0.000000 wLong=  0.200000 cFull=  0.000000 cShort=  0.000000 cLong=  1.000000
 NAtoms=   22 NActive=   22 NUniq=   22 SFac= 1.00D+00 NAtFMM=   60 NAOKFM=F Big=F
 Integral buffers will be    131072 words long.
 Raffenetti 2 integral format.
 Two-electron integral symmetry is turned off.
 R6Disp:  Grimme-D2 Dispersion energy=       -0.0170566298 Hartrees.
 Nuclear repulsion after empirical dispersion term =     1624.5155516599 Hartrees.
 Leave Link  301 at Thu Aug 24 15:54:08 2017, MaxMem=    33554432 cpu:         0.6
 (Enter /sw/chem/g09/l302.exe)
 NPDir=0 NMtPBC=     1 NCelOv=     1 NCel=       1 NClECP=     1 NCelD=      1
         NCelK=      1 NCelE2=     1 NClLst=     1 CellRange=     0.0.
 One-electron integrals computed using PRISM.
 PrsmSu:  requested number of processors reduced to:   4 ShMem   1 Linda.
 NBasis=   306 RedAO= T EigKep=  2.33D-04  NBF=   306
 NBsUse=   306 1.00D-06 EigRej= -1.00D+00 NBFU=   306
 Precomputing XC quadrature grid using
 IXCGrd= 4 IRadAn=           5 IRanWt=          -1 IRanGd=           0 AccXCQ= 0.00D+00.
 Generated NRdTot=       0 NPtTot=           0 NUsed=           0 NTot=          32
 NSgBfM=   316   316   316   316   316 MxSgAt=    22 MxSgA2=    22.
 Leave Link  302 at Thu Aug 24 15:54:09 2017, MaxMem=    33554432 cpu:         4.7
 (Enter /sw/chem/g09/l303.exe)
 DipDrv:  MaxL=1.
 Leave Link  303 at Thu Aug 24 15:54:09 2017, MaxMem=    33554432 cpu:         0.5
 (Enter /sw/chem/g09/l401.exe)
 ExpMin= 3.41D-02 ExpMax= 2.54D+05 ExpMxC= 2.46D+03 IAcc=3 IRadAn=         5 AccDes= 0.00D+00
 Harris functional with IExCor= 4639 and IRadAn=       5 diagonalized for initial guess.
 HarFok:  IExCor= 4639 AccDes= 0.00D+00 IRadAn=         5 IDoV= 1 UseB2=F ITyADJ=14
 ICtDFT=  3500011 ScaDFX=  1.000000  1.000000  1.000000  1.000000
 FoFCou: FMM=F IPFlag=           0 FMFlag=      100000 FMFlg1=           0
         NFxFlg=           0 DoJE=T BraDBF=F KetDBF=T FulRan=T
         wScrn=  0.000000 ICntrl=     500 IOpCl=  0 I1Cent=   200000004 NGrid=           0
         NMat0=    1 NMatS0=      1 NMatT0=    0 NMatD0=    1 NMtDS0=    0 NMtDT0=    0
 Symmetry not used in FoFCou.
 Harris En= -2355.28846127633    
 JPrj=0 DoOrth=F DoCkMO=F.
 Initial guess <Sx>= 0.0000 <Sy>= 0.0000 <Sz>= 2.0000 <S**2>= 6.0000 S= 2.0000
 Leave Link  401 at Thu Aug 24 15:54:11 2017, MaxMem=    33554432 cpu:        21.9
 (Enter /sw/chem/g09/l502.exe)
 UHF open shell SCF:
 Using DIIS extrapolation, IDIIS=  1040.
 Two-electron integral symmetry not used.
 IVT=      335442 IEndB=      335442 NGot=    33554432 MDV=    33339637
 LenX=    33339637 LenY=    33235512
 Requested convergence on RMS density matrix=1.00D-08 within 128 cycles.
 Requested convergence on MAX density matrix=1.00D-06.
 Requested convergence on             energy=1.00D-06.
 No special actions if energy rises.
 Fock matrices will be formed incrementally for  20 cycles.

 Cycle   1  Pass 1  IDiag  1:
 FoFJK:  IHMeth= 1 ICntrl=       0 DoSepK=T KAlg= 0 I1Cent=   0 FoldK=F
 IRaf=         1 NMat=   1 IRICut=       1 DoRegI=T DoRafI=F ISym2E= 0.
 FoFCou: FMM=F IPFlag=           0 FMFlag=      100000 FMFlg1=           0
         NFxFlg=           0 DoJE=T BraDBF=F KetDBF=F FulRan=T
         wScrn=  0.000000 ICntrl=     500 IOpCl=  0 I1Cent=           0 NGrid=           0
         NMat0=    1 NMatS0=      1 NMatT0=    0 NMatD0=    1 NMtDS0=    0 NMtDT0=    0
 Symmetry not used in FoFCou.
 E= -2401.32739335802    
 DIIS: error= 1.07D-01 at cycle   1 NSaved=   1.
 NSaved= 1 IEnMin= 1 EnMin= -2401.32739335802     IErMin= 1 ErrMin= 1.07D-01
 ErrMax= 1.07D-01  0.00D+00 EMaxC= 1.00D-01 BMatC= 2.16D+01 BMatP= 2.16D+01
 IDIUse=3 WtCom= 0.00D+00 WtEn= 1.00D+00
 Coeff-Com:  0.100D+01
 Coeff-En:   0.100D+01
 Coeff:      0.100D+01
 Gap=    -0.052 Goal=   None    Shift=    0.000
 Gap=     0.696 Goal=   None    Shift=    0.000
 GapD=   -0.052 DampG=0.250 DampE=0.125 DampFc=0.1250 IDamp=-1.
 Damping current iteration by 1.25D-01
 RMSDP=3.98D-02 MaxDP=4.95D+00              OVMax= 9.73D-01

 Cycle   2  Pass 1  IDiag  1:
 RMSU=  3.87D-03    CP:  9.17D-01
 E= -2403.00933390116     Delta-E=       -1.681940543136 Rises=F Damp=T
 DIIS: error= 6.32D-02 at cycle   2 NSaved=   2.
 NSaved= 2 IEnMin= 2 EnMin= -2403.00933390116     IErMin= 2 ErrMin= 6.32D-02
 ErrMax= 6.32D-02  0.00D+00 EMaxC= 1.00D-01 BMatC= 8.60D+00 BMatP= 2.16D+01
 IDIUse=3 WtCom= 3.68D-01 WtEn= 6.32D-01
 Coeff-Com: -0.104D+01 0.204D+01
 Coeff-En:   0.000D+00 0.100D+01
 Coeff:     -0.384D+00 0.138D+01
 Gap=     0.062 Goal=   None    Shift=    0.000
 Gap=    -0.172 Goal=   None    Shift=    0.000
 RMSDP=2.76D-02 MaxDP=4.47D+00 DE=-1.68D+00 OVMax= 8.98D-01

 Cycle   3  Pass 1  IDiag  1:
 RMSU=  1.34D-02    CP:  3.14D-01  3.00D+00
 E= -2394.35889801717     Delta-E=        8.650435883986 Rises=F Damp=F
 DIIS: error= 3.48D-01 at cycle   3 NSaved=   3.
 NSaved= 3 IEnMin= 2 EnMin= -2403.00933390116     IErMin= 2 ErrMin= 6.32D-02
 ErrMax= 3.48D-01  0.00D+00 EMaxC= 1.00D-01 BMatC= 8.05D+01 BMatP= 8.60D+00
 IDIUse=2 WtCom= 0.00D+00 WtEn= 1.00D+00
 EnCoef did   100 forward-backward iterations
 Coeff-En:   0.639D+00 0.145D-01 0.346D+00
 Coeff:      0.639D+00 0.145D-01 0.346D+00
 Gap=     0.161 Goal=   None    Shift=    0.000
 Gap=    -0.035 Goal=   None    Shift=    0.000
 RMSDP=5.62D-03 MaxDP=2.57D-01 DE= 8.65D+00 OVMax= 6.24D-01

 Cycle   4  Pass 1  IDiag  1:
 RMSU=  5.50D-03    CP:  3.08D-01  2.87D+00  9.68D-01
 E= -2396.92179634054     Delta-E=       -2.562898323368 Rises=F Damp=F
 DIIS: error= 1.71D-01 at cycle   4 NSaved=   4.
 NSaved= 4 IEnMin= 2 EnMin= -2403.00933390116     IErMin= 2 ErrMin= 6.32D-02
 ErrMax= 1.71D-01  0.00D+00 EMaxC= 1.00D-01 BMatC= 4.13D+01 BMatP= 8.60D+00
 IDIUse=2 WtCom= 0.00D+00 WtEn= 1.00D+00
 EnCoef did   100 forward-backward iterations
 Coeff-En:   0.594D+00 0.979D-02 0.178D+00 0.218D+00
 Coeff:      0.594D+00 0.979D-02 0.178D+00 0.218D+00
 Gap=     0.076 Goal=   None    Shift=    0.000
 Gap=    -0.144 Goal=   None    Shift=    0.000
 RMSDP=4.75D-03 MaxDP=4.00D-01 DE=-2.56D+00 OVMax= 9.89D-01

 Cycle   5  Pass 1  IDiag  1:
 RMSU=  3.75D-03    CP:  3.18D-01  2.65D+00  9.90D-01  5.00D-01
 E= -2405.90900843259     Delta-E=       -8.987212092049 Rises=F Damp=F
 DIIS: error= 1.50D-02 at cycle   5 NSaved=   5.
 NSaved= 5 IEnMin= 5 EnMin= -2405.90900843259     IErMin= 5 ErrMin= 1.50D-02
 ErrMax= 1.50D-02  0.00D+00 EMaxC= 1.00D-01 BMatC= 6.17D-01 BMatP= 8.60D+00
 IDIUse=3 WtCom= 8.50D-01 WtEn= 1.50D-01
 Coeff-Com: -0.161D+00 0.356D+00-0.385D-01 0.363D-02 0.840D+00
 Coeff-En:   0.000D+00 0.000D+00 0.000D+00 0.000D+00 0.100D+01
 Coeff:     -0.137D+00 0.303D+00-0.327D-01 0.309D-02 0.864D+00
 Gap=     0.296 Goal=   None    Shift=    0.000
 Gap=     0.383 Goal=   None    Shift=    0.000
 RMSDP=1.47D-03 MaxDP=5.99D-02 DE=-8.99D+00 OVMax= 1.12D-01

 Cycle   6  Pass 1  IDiag  1:
 RMSU=  1.43D-03    CP:  3.17D-01  2.61D+00  9.80D-01  5.35D-01  1.03D+00
 E= -2406.01302678467     Delta-E=       -0.104018352079 Rises=F Damp=F
 DIIS: error= 7.42D-03 at cycle   6 NSaved=   6.
 NSaved= 6 IEnMin= 6 EnMin= -2406.01302678467     IErMin= 6 ErrMin= 7.42D-03
 ErrMax= 7.42D-03  0.00D+00 EMaxC= 1.00D-01 BMatC= 1.23D-01 BMatP= 6.17D-01
 IDIUse=3 WtCom= 9.26D-01 WtEn= 7.42D-02
 Coeff-Com: -0.614D-01 0.104D+00-0.144D-01 0.923D-02 0.331D+00 0.632D+00
 Coeff-En:   0.000D+00 0.000D+00 0.000D+00 0.000D+00 0.000D+00 0.100D+01
 Coeff:     -0.569D-01 0.962D-01-0.134D-01 0.855D-02 0.306D+00 0.659D+00
 Gap=     0.262 Goal=   None    Shift=    0.000
 Gap=     0.342 Goal=   None    Shift=    0.000
 RMSDP=7.04D-04 MaxDP=5.03D-02 DE=-1.04D-01 OVMax= 4.33D-02

 Cycle   7  Pass 1  IDiag  1:
 RMSU=  6.56D-04    CP:  3.13D-01  2.63D+00  9.80D-01  5.54D-01  1.00D+00
                    CP:  9.28D-01
 E= -2406.03566665918     Delta-E=       -0.022639874517 Rises=F Damp=F
 DIIS: error= 2.66D-03 at cycle   7 NSaved=   7.
 NSaved= 7 IEnMin= 7 EnMin= -2406.03566665918     IErMin= 7 ErrMin= 2.66D-03
 ErrMax= 2.66D-03  0.00D+00 EMaxC= 1.00D-01 BMatC= 1.49D-02 BMatP= 1.23D-01
 IDIUse=3 WtCom= 9.73D-01 WtEn= 2.66D-02
 Coeff-Com: -0.277D-01 0.353D-01 0.443D-03 0.413D-02 0.241D-01 0.239D+00
 Coeff-Com:  0.725D+00
 Coeff-En:   0.000D+00 0.000D+00 0.000D+00 0.000D+00 0.000D+00 0.000D+00
 Coeff-En:   0.100D+01
 Coeff:     -0.270D-01 0.343D-01 0.431D-03 0.402D-02 0.235D-01 0.233D+00
 Coeff:      0.732D+00
 Gap=     0.251 Goal=   None    Shift=    0.000
 Gap=     0.343 Goal=   None    Shift=    0.000
 RMSDP=2.79D-04 MaxDP=1.72D-02 DE=-2.26D-02 OVMax= 2.34D-02

 Cycle   8  Pass 1  IDiag  1:
 RMSU=  2.12D-04    CP:  3.13D-01  2.65D+00  9.78D-01  5.60D-01  9.87D-01
                    CP:  1.02D+00  1.12D+00
 E= -2406.03978519872     Delta-E=       -0.004118539539 Rises=F Damp=F
 DIIS: error= 1.96D-03 at cycle   8 NSaved=   8.
 NSaved= 8 IEnMin= 8 EnMin= -2406.03978519872     IErMin= 8 ErrMin= 1.96D-03
 ErrMax= 1.96D-03  0.00D+00 EMaxC= 1.00D-01 BMatC= 3.69D-03 BMatP= 1.49D-02
 IDIUse=3 WtCom= 9.80D-01 WtEn= 1.96D-02
 Coeff-Com: -0.134D-01 0.166D-01 0.273D-02 0.613D-03-0.239D-01-0.763D-01
 Coeff-Com:  0.243D-02 0.109D+01
 Coeff-En:   0.000D+00 0.000D+00 0.000D+00 0.000D+00 0.000D+00 0.000D+00
 Coeff-En:   0.000D+00 0.100D+01
 Coeff:     -0.132D-01 0.163D-01 0.267D-02 0.601D-03-0.235D-01-0.748D-01
 Coeff:      0.238D-02 0.109D+01
 Gap=     0.249 Goal=   None    Shift=    0.000
 Gap=     0.341 Goal=   None    Shift=    0.000
 RMSDP=1.91D-04 MaxDP=1.11D-02 DE=-4.12D-03 OVMax= 2.48D-02

 Cycle   9  Pass 1  IDiag  1:
 RMSU=  9.00D-05    CP:  3.13D-01  2.66D+00  9.76D-01  5.61D-01  9.76D-01
                    CP:  1.07D+00  1.31D+00  1.33D+00
 E= -2406.04165561997     Delta-E=       -0.001870421250 Rises=F Damp=F
 DIIS: error= 8.10D-04 at cycle   9 NSaved=   9.
 NSaved= 9 IEnMin= 9 EnMin= -2406.04165561997     IErMin= 9 ErrMin= 8.10D-04
 ErrMax= 8.10D-04  0.00D+00 EMaxC= 1.00D-01 BMatC= 7.03D-04 BMatP= 3.69D-03
 IDIUse=3 WtCom= 9.92D-01 WtEn= 8.10D-03
 Coeff-Com: -0.603D-03 0.103D-02 0.287D-03 0.823D-03-0.760D-02-0.691D-01
 Coeff-Com: -0.164D+00 0.332D+00 0.907D+00
 Coeff-En:   0.000D+00 0.000D+00 0.000D+00 0.000D+00 0.000D+00 0.000D+00
 Coeff-En:   0.000D+00 0.000D+00 0.100D+01
 Coeff:     -0.598D-03 0.103D-02 0.284D-03 0.817D-03-0.753D-02-0.686D-01
 Coeff:     -0.162D+00 0.329D+00 0.908D+00
 Gap=     0.249 Goal=   None    Shift=    0.000
 Gap=     0.340 Goal=   None    Shift=    0.000
 RMSDP=1.00D-04 MaxDP=5.93D-03 DE=-1.87D-03 OVMax= 1.94D-02

 Cycle  10  Pass 1  IDiag  1:
 RMSU=  4.47D-05    CP:  3.13D-01  2.66D+00  9.75D-01  5.61D-01  9.70D-01
                    CP:  1.09D+00  1.37D+00  1.58D+00  1.49D+00
 E= -2406.04225629211     Delta-E=       -0.000600672136 Rises=F Damp=F
 DIIS: error= 4.44D-04 at cycle  10 NSaved=  10.
 NSaved=10 IEnMin=10 EnMin= -2406.04225629211     IErMin=10 ErrMin= 4.44D-04
 ErrMax= 4.44D-04  0.00D+00 EMaxC= 1.00D-01 BMatC= 2.69D-04 BMatP= 7.03D-04
 IDIUse=3 WtCom= 9.96D-01 WtEn= 4.44D-03
 Coeff-Com:  0.224D-02-0.253D-02-0.424D-03 0.115D-03-0.347D-03-0.139D-01
 Coeff-Com: -0.519D-01-0.192D-01 0.383D+00 0.703D+00
 Coeff-En:   0.000D+00 0.000D+00 0.000D+00 0.000D+00 0.000D+00 0.000D+00
 Coeff-En:   0.000D+00 0.000D+00 0.000D+00 0.100D+01
 Coeff:      0.223D-02-0.251D-02-0.423D-03 0.114D-03-0.346D-03-0.139D-01
 Coeff:     -0.517D-01-0.191D-01 0.381D+00 0.705D+00
 Gap=     0.248 Goal=   None    Shift=    0.000
 Gap=     0.341 Goal=   None    Shift=    0.000
 RMSDP=4.19D-05 MaxDP=2.32D-03 DE=-6.01D-04 OVMax= 9.83D-03

 Cycle  11  Pass 1  IDiag  1:
 RMSU=  2.27D-05    CP:  3.13D-01  2.66D+00  9.75D-01  5.62D-01  9.69D-01
                    CP:  1.09D+00  1.38D+00  1.66D+00  1.78D+00  1.31D+00
 E= -2406.04244495705     Delta-E=       -0.000188664942 Rises=F Damp=F
 DIIS: error= 4.07D-04 at cycle  11 NSaved=  11.
 NSaved=11 IEnMin=11 EnMin= -2406.04244495705     IErMin=11 ErrMin= 4.07D-04
 ErrMax= 4.07D-04  0.00D+00 EMaxC= 1.00D-01 BMatC= 1.86D-04 BMatP= 2.69D-04
 IDIUse=3 WtCom= 9.96D-01 WtEn= 4.07D-03
 Coeff-Com:  0.266D-02-0.336D-02-0.226D-03-0.473D-03-0.262D-02 0.680D-02
 Coeff-Com:  0.314D-01-0.105D-01-0.107D+00 0.815D-01 0.100D+01
 Coeff-En:   0.000D+00 0.000D+00 0.000D+00 0.000D+00 0.000D+00 0.000D+00
 Coeff-En:   0.000D+00 0.000D+00 0.000D+00 0.000D+00 0.100D+01
 Coeff:      0.265D-02-0.335D-02-0.225D-03-0.472D-03-0.261D-02 0.677D-02
 Coeff:      0.312D-01-0.105D-01-0.106D+00 0.811D-01 0.100D+01
 Gap=     0.249 Goal=   None    Shift=    0.000
 Gap=     0.341 Goal=   None    Shift=    0.000
 RMSDP=3.73D-05 MaxDP=1.85D-03 DE=-1.89D-04 OVMax= 9.08D-03

 Cycle  12  Pass 1  IDiag  1:
 RMSU=  1.24D-05    CP:  3.13D-01  2.66D+00  9.75D-01  5.62D-01  9.69D-01
                    CP:  1.09D+00  1.38D+00  1.68D+00  2.02D+00  1.81D+00
                    CP:  1.67D+00
 E= -2406.04258186816     Delta-E=       -0.000136911109 Rises=F Damp=F
 DIIS: error= 3.58D-04 at cycle  12 NSaved=  12.
 NSaved=12 IEnMin=12 EnMin= -2406.04258186816     IErMin=12 ErrMin= 3.58D-04
 ErrMax= 3.58D-04  0.00D+00 EMaxC= 1.00D-01 BMatC= 1.39D-04 BMatP= 1.86D-04
 IDIUse=3 WtCom= 9.96D-01 WtEn= 3.58D-03
 Coeff-Com:  0.216D-02-0.297D-02 0.611D-05-0.379D-03-0.525D-02 0.560D-02
 Coeff-Com:  0.493D-01 0.886D-01-0.260D+00-0.561D+00 0.331D+00 0.135D+01
 Coeff-En:   0.000D+00 0.000D+00 0.000D+00 0.000D+00 0.000D+00 0.000D+00
 Coeff-En:   0.000D+00 0.000D+00 0.000D+00 0.000D+00 0.000D+00 0.100D+01
 Coeff:      0.215D-02-0.296D-02 0.608D-05-0.378D-03-0.523D-02 0.558D-02
 Coeff:      0.491D-01 0.883D-01-0.259D+00-0.559D+00 0.330D+00 0.135D+01
 Gap=     0.251 Goal=   None    Shift=    0.000
 Gap=     0.343 Goal=   None    Shift=    0.000
 RMSDP=5.40D-05 MaxDP=2.44D-03 DE=-1.37D-04 OVMax= 1.21D-02

 Cycle  13  Pass 1  IDiag  1:
 RMSU=  1.48D-05    CP:  3.13D-01  2.66D+00  9.76D-01  5.62D-01  9.69D-01
                    CP:  1.10D+00  1.38D+00  1.69D+00  2.34D+00  2.52D+00
                    CP:  2.74D+00  2.08D+00
 E= -2406.04272662311     Delta-E=       -0.000144754950 Rises=F Damp=F
 DIIS: error= 1.86D-04 at cycle  13 NSaved=  13.
 NSaved=13 IEnMin=13 EnMin= -2406.04272662311     IErMin=13 ErrMin= 1.86D-04
 ErrMax= 1.86D-04  0.00D+00 EMaxC= 1.00D-01 BMatC= 3.96D-05 BMatP= 1.39D-04
 IDIUse=3 WtCom= 9.98D-01 WtEn= 1.86D-03
 Coeff-Com:  0.235D-03-0.343D-03 0.146D-04-0.806D-04-0.116D-02-0.249D-02
 Coeff-Com: -0.352D-02 0.535D-01-0.111D-01-0.269D+00-0.529D+00 0.503D+00
 Coeff-Com:  0.126D+01
 Coeff-En:   0.000D+00 0.000D+00 0.000D+00 0.000D+00 0.000D+00 0.000D+00
 Coeff-En:   0.000D+00 0.000D+00 0.000D+00 0.000D+00 0.000D+00 0.000D+00
 Coeff-En:   0.100D+01
 Coeff:      0.235D-03-0.343D-03 0.145D-04-0.805D-04-0.116D-02-0.249D-02
 Coeff:     -0.352D-02 0.534D-01-0.111D-01-0.268D+00-0.528D+00 0.502D+00
 Coeff:      0.126D+01
 Gap=     0.252 Goal=   None    Shift=    0.000
 Gap=     0.344 Goal=   None    Shift=    0.000
 RMSDP=5.00D-05 MaxDP=2.25D-03 DE=-1.45D-04 OVMax= 1.08D-02

 Cycle  14  Pass 1  IDiag  1:
 RMSU=  1.96D-05    CP:  3.13D-01  2.66D+00  9.76D-01  5.62D-01  9.69D-01
                    CP:  1.10D+00  1.37D+00  1.73D+00  2.62D+00  3.00D+00
                    CP:  3.00D+00  3.00D+00  1.87D+00
 E= -2406.04278988231     Delta-E=       -0.000063259203 Rises=F Damp=F
 DIIS: error= 4.61D-05 at cycle  14 NSaved=  14.
 NSaved=14 IEnMin=14 EnMin= -2406.04278988231     IErMin=14 ErrMin= 4.61D-05
 ErrMax= 4.61D-05  0.00D+00 EMaxC= 1.00D-01 BMatC= 4.86D-06 BMatP= 3.96D-05
 IDIUse=1 WtCom= 1.00D+00 WtEn= 0.00D+00
 Coeff-Com: -0.177D-03 0.219D-03 0.852D-05-0.132D-04 0.347D-03-0.487D-03
 Coeff-Com: -0.738D-02-0.559D-02 0.206D-01 0.414D-02-0.199D+00-0.630D-01
 Coeff-Com:  0.469D+00 0.781D+00
 Coeff:     -0.177D-03 0.219D-03 0.852D-05-0.132D-04 0.347D-03-0.487D-03
 Coeff:     -0.738D-02-0.559D-02 0.206D-01 0.414D-02-0.199D+00-0.630D-01
 Coeff:      0.469D+00 0.781D+00
 Gap=     0.252 Goal=   None    Shift=    0.000
 Gap=     0.344 Goal=   None    Shift=    0.000
 RMSDP=1.20D-05 MaxDP=6.01D-04 DE=-6.33D-05 OVMax= 2.52D-03

 Cycle  15  Pass 1  IDiag  1:
 RMSU=  5.35D-06    CP:  3.13D-01  2.66D+00  9.76D-01  5.62D-01  9.69D-01
                    CP:  1.10D+00  1.38D+00  1.74D+00  2.69D+00  3.00D+00
                    CP:  3.00D+00  3.00D+00  2.16D+00  1.35D+00
 E= -2406.04279512537     Delta-E=       -0.000005243053 Rises=F Damp=F
 DIIS: error= 3.56D-05 at cycle  15 NSaved=  15.
 NSaved=15 IEnMin=15 EnMin= -2406.04279512537     IErMin=15 ErrMin= 3.56D-05
 ErrMax= 3.56D-05  0.00D+00 EMaxC= 1.00D-01 BMatC= 1.74D-06 BMatP= 4.86D-06
 IDIUse=1 WtCom= 1.00D+00 WtEn= 0.00D+00
 Coeff-Com: -0.142D-03 0.176D-03-0.364D-05 0.354D-04 0.421D-03 0.948D-03
 Coeff-Com: -0.393D-03-0.163D-01-0.841D-03 0.496D-01 0.504D-01-0.107D+00
 Coeff-Com: -0.780D-01 0.290D+00 0.810D+00
 Coeff:     -0.142D-03 0.176D-03-0.364D-05 0.354D-04 0.421D-03 0.948D-03
 Coeff:     -0.393D-03-0.163D-01-0.841D-03 0.496D-01 0.504D-01-0.107D+00
 Coeff:     -0.780D-01 0.290D+00 0.810D+00
 Gap=     0.252 Goal=   None    Shift=    0.000
 Gap=     0.344 Goal=   None    Shift=    0.000
 RMSDP=4.35D-06 MaxDP=2.87D-04 DE=-5.24D-06 OVMax= 8.80D-04

 Cycle  16  Pass 1  IDiag  1:
 RMSU=  2.49D-06    CP:  3.13D-01  2.66D+00  9.76D-01  5.62D-01  9.69D-01
                    CP:  1.10D+00  1.38D+00  1.75D+00  2.70D+00  3.00D+00
                    CP:  3.00D+00  3.00D+00  2.27D+00  1.45D+00  1.27D+00
 E= -2406.04279645753     Delta-E=       -0.000001332167 Rises=F Damp=F
 DIIS: error= 3.26D-05 at cycle  16 NSaved=  16.
 NSaved=16 IEnMin=16 EnMin= -2406.04279645753     IErMin=16 ErrMin= 3.26D-05
 ErrMax= 3.26D-05  0.00D+00 EMaxC= 1.00D-01 BMatC= 6.77D-07 BMatP= 1.74D-06
 IDIUse=1 WtCom= 1.00D+00 WtEn= 0.00D+00
 Coeff-Com: -0.101D-03 0.152D-03 0.554D-05 0.368D-05 0.256D-03 0.422D-03
 Coeff-Com:  0.140D-02-0.173D-02-0.636D-02-0.627D-02 0.340D-01 0.372D-01
 Coeff-Com: -0.864D-01-0.229D+00-0.393D-01 0.130D+01
 Coeff:     -0.101D-03 0.152D-03 0.554D-05 0.368D-05 0.256D-03 0.422D-03
 Coeff:      0.140D-02-0.173D-02-0.636D-02-0.627D-02 0.340D-01 0.372D-01
 Coeff:     -0.864D-01-0.229D+00-0.393D-01 0.130D+01
 Gap=     0.252 Goal=   None    Shift=    0.000
 Gap=     0.344 Goal=   None    Shift=    0.000
 RMSDP=4.32D-06 MaxDP=3.37D-04 DE=-1.33D-06 OVMax= 1.18D-03

 Cycle  17  Pass 1  IDiag  1:
 RMSU=  1.57D-06    CP:  3.13D-01  2.66D+00  9.76D-01  5.62D-01  9.69D-01
                    CP:  1.10D+00  1.38D+00  1.75D+00  2.71D+00  3.00D+00
                    CP:  3.00D+00  3.00D+00  2.35D+00  1.55D+00  1.60D+00
                    CP:  1.97D+00
 E= -2406.04279748870     Delta-E=       -0.000001031169 Rises=F Damp=F
 DIIS: error= 2.74D-05 at cycle  17 NSaved=  17.
 NSaved=17 IEnMin=17 EnMin= -2406.04279748870     IErMin=17 ErrMin= 2.74D-05
 ErrMax= 2.74D-05  0.00D+00 EMaxC= 1.00D-01 BMatC= 1.94D-07 BMatP= 6.77D-07
 IDIUse=1 WtCom= 1.00D+00 WtEn= 0.00D+00
 Coeff-Com:  0.292D-05-0.231D-05 0.142D-05 0.204D-05-0.445D-04-0.168D-03
 Coeff-Com:  0.229D-04 0.521D-02 0.115D-02-0.190D-01-0.235D-01 0.431D-01
 Coeff-Com:  0.327D-01-0.133D+00-0.339D+00 0.990D-01 0.133D+01
 Coeff:      0.292D-05-0.231D-05 0.142D-05 0.204D-05-0.445D-04-0.168D-03
 Coeff:      0.229D-04 0.521D-02 0.115D-02-0.190D-01-0.235D-01 0.431D-01
 Coeff:      0.327D-01-0.133D+00-0.339D+00 0.990D-01 0.133D+01
 Gap=     0.252 Goal=   None    Shift=    0.000
 Gap=     0.344 Goal=   None    Shift=    0.000
 RMSDP=4.05D-06 MaxDP=3.73D-04 DE=-1.03D-06 OVMax= 1.27D-03

 Cycle  18  Pass 1  IDiag  1:
 RMSU=  1.01D-06    CP:  3.13D-01  2.66D+00  9.76D-01  5.62D-01  9.69D-01
                    CP:  1.10D+00  1.38D+00  1.75D+00  2.71D+00  3.00D+00
                    CP:  3.00D+00  3.00D+00  2.41D+00  1.65D+00  1.90D+00
                    CP:  2.89D+00  2.05D+00
 E= -2406.04279812263     Delta-E=       -0.000000633934 Rises=F Damp=F
 DIIS: error= 2.09D-05 at cycle  18 NSaved=  18.
 NSaved=18 IEnMin=18 EnMin= -2406.04279812263     IErMin=18 ErrMin= 2.09D-05
 ErrMax= 2.09D-05  0.00D+00 EMaxC= 1.00D-01 BMatC= 8.67D-08 BMatP= 1.94D-07
 IDIUse=1 WtCom= 1.00D+00 WtEn= 0.00D+00
 Coeff-Com:  0.236D-04-0.382D-04-0.221D-05 0.304D-06-0.106D-03-0.202D-03
 Coeff-Com: -0.639D-03 0.246D-02 0.353D-02-0.209D-02-0.196D-01-0.651D-02
 Coeff-Com:  0.356D-01 0.497D-01-0.650D-01-0.382D+00 0.328D+00 0.106D+01
 Coeff:      0.236D-04-0.382D-04-0.221D-05 0.304D-06-0.106D-03-0.202D-03
 Coeff:     -0.639D-03 0.246D-02 0.353D-02-0.209D-02-0.196D-01-0.651D-02
 Coeff:      0.356D-01 0.497D-01-0.650D-01-0.382D+00 0.328D+00 0.106D+01
 Gap=     0.252 Goal=   None    Shift=    0.000
 Gap=     0.344 Goal=   None    Shift=    0.000
 RMSDP=2.45D-06 MaxDP=2.45D-04 DE=-6.34D-07 OVMax= 8.07D-04

 Cycle  19  Pass 1  IDiag  1:
 RMSU=  1.15D-06    CP:  3.13D-01  2.66D+00  9.76D-01  5.62D-01  9.69D-01
                    CP:  1.10D+00  1.38D+00  1.75D+00  2.72D+00  3.00D+00
                    CP:  3.00D+00  3.00D+00  2.44D+00  1.70D+00  2.05D+00
                    CP:  3.00D+00  2.79D+00  1.75D+00
 E= -2406.04279836124     Delta-E=       -0.000000238610 Rises=F Damp=F
 DIIS: error= 1.41D-05 at cycle  19 NSaved=  19.
 NSaved=19 IEnMin=19 EnMin= -2406.04279836124     IErMin=19 ErrMin= 1.41D-05
 ErrMax= 1.41D-05  0.00D+00 EMaxC= 1.00D-01 BMatC= 3.68D-08 BMatP= 8.67D-08
 IDIUse=1 WtCom= 1.00D+00 WtEn= 0.00D+00
 Coeff-Com:  0.156D-04-0.198D-04-0.725D-06-0.154D-05-0.377D-04-0.463D-04
 Coeff-Com: -0.159D-03-0.132D-02 0.909D-03 0.929D-02 0.107D-01-0.207D-01
 Coeff-Com: -0.184D-01 0.533D-01 0.132D+00-0.437D-01-0.574D+00 0.313D-01
 Coeff-Com:  0.142D+01
 Coeff:      0.156D-04-0.198D-04-0.725D-06-0.154D-05-0.377D-04-0.463D-04
 Coeff:     -0.159D-03-0.132D-02 0.909D-03 0.929D-02 0.107D-01-0.207D-01
 Coeff:     -0.184D-01 0.533D-01 0.132D+00-0.437D-01-0.574D+00 0.313D-01
 Coeff:      0.142D+01
 Gap=     0.252 Goal=   None    Shift=    0.000
 Gap=     0.345 Goal=   None    Shift=    0.000
 RMSDP=2.19D-06 MaxDP=2.49D-04 DE=-2.39D-07 OVMax= 7.93D-04

 Cycle  20  Pass 1  IDiag  1:
 RMSU=  9.62D-07    CP:  3.13D-01  2.66D+00  9.76D-01  5.62D-01  9.69D-01
                    CP:  1.10D+00  1.38D+00  1.75D+00  2.72D+00  3.00D+00
                    CP:  3.00D+00  3.00D+00  2.47D+00  1.73D+00  2.16D+00
                    CP:  3.00D+00  3.00D+00  2.56D+00  2.14D+00
 E= -2406.04279850313     Delta-E=       -0.000000141882 Rises=F Damp=F
 DIIS: error= 7.93D-06 at cycle  20 NSaved=  20.
 NSaved=20 IEnMin=20 EnMin= -2406.04279850313     IErMin=20 ErrMin= 7.93D-06
 ErrMax= 7.93D-06  0.00D+00 EMaxC= 1.00D-01 BMatC= 1.39D-08 BMatP= 3.68D-08
 IDIUse=1 WtCom= 1.00D+00 WtEn= 0.00D+00
 Coeff-Com:  0.223D-05-0.171D-05 0.125D-05-0.141D-05-0.421D-05-0.476D-04
 Coeff-Com:  0.249D-03-0.503D-03-0.607D-03 0.392D-03 0.627D-02 0.506D-02
 Coeff-Com: -0.157D-01-0.282D-01 0.247D-01 0.182D+00-0.134D+00-0.497D+00
 Coeff-Com: -0.216D-01 0.148D+01
 Coeff:      0.223D-05-0.171D-05 0.125D-05-0.141D-05-0.421D-05-0.476D-04
 Coeff:      0.249D-03-0.503D-03-0.607D-03 0.392D-03 0.627D-02 0.506D-02
 Coeff:     -0.157D-01-0.282D-01 0.247D-01 0.182D+00-0.134D+00-0.497D+00
 Coeff:     -0.216D-01 0.148D+01
 Gap=     0.252 Goal=   None    Shift=    0.000
 Gap=     0.345 Goal=   None    Shift=    0.000
 RMSDP=1.60D-06 MaxDP=1.89D-04 DE=-1.42D-07 OVMax= 5.90D-04

 Cycle  21  Pass 1  IDiag  1:
 Restarting incremental Fock formation.
 E= -2406.04279855760     Delta-E=       -0.000000054476 Rises=F Damp=F
 DIIS: error= 2.47D-06 at cycle  21 NSaved=  20.
 NSaved=20 IEnMin=20 EnMin= -2406.04279855760     IErMin=20 ErrMin= 2.47D-06
 ErrMax= 2.47D-06  0.00D+00 EMaxC= 1.00D-01 BMatC= 4.23D-09 BMatP= 1.39D-08
 IDIUse=1 WtCom= 1.00D+00 WtEn= 0.00D+00
 Coeff-Com: -0.195D-05 0.260D-05-0.186D-06 0.125D-04 0.303D-06 0.154D-03
 Coeff-Com: -0.220D-04-0.552D-03-0.208D-02-0.309D-03 0.750D-02-0.322D-03
 Coeff-Com: -0.250D-01-0.295D-01 0.682D-01 0.108D+00-0.141D+00-0.448D+00
 Coeff-Com:  0.548D+00 0.914D+00
 Coeff:     -0.195D-05 0.260D-05-0.186D-06 0.125D-04 0.303D-06 0.154D-03
 Coeff:     -0.220D-04-0.552D-03-0.208D-02-0.309D-03 0.750D-02-0.322D-03
 Coeff:     -0.250D-01-0.295D-01 0.682D-01 0.108D+00-0.141D+00-0.448D+00
 Coeff:      0.548D+00 0.914D+00
 Gap=     0.252 Goal=   None    Shift=    0.000
 Gap=     0.345 Goal=   None    Shift=    0.000
 RMSDP=6.06D-07 MaxDP=7.11D-05 DE=-5.45D-08 OVMax= 2.22D-04

 Cycle  22  Pass 1  IDiag  1:
 RMSU=  6.06D-07    CP:  1.00D+00
 E= -2406.04279856654     Delta-E=       -0.000000008937 Rises=F Damp=F
 DIIS: error= 9.39D-07 at cycle  22 NSaved=  20.
 NSaved=20 IEnMin=20 EnMin= -2406.04279856654     IErMin=20 ErrMin= 9.39D-07
 ErrMax= 9.39D-07  0.00D+00 EMaxC= 1.00D-01 BMatC= 1.40D-09 BMatP= 4.23D-09
 IDIUse=1 WtCom= 1.00D+00 WtEn= 0.00D+00
 Coeff-Com: -0.216D-05 0.289D-05 0.779D-05 0.227D-04-0.483D-05 0.370D-04
 Coeff-Com: -0.334D-03-0.454D-03-0.105D-02-0.215D-03 0.463D-02 0.409D-02
 Coeff-Com: -0.117D-01-0.402D-01 0.364D-01 0.148D+00-0.883D-01-0.294D+00
 Coeff-Com:  0.116D+00 0.113D+01
 Coeff:     -0.216D-05 0.289D-05 0.779D-05 0.227D-04-0.483D-05 0.370D-04
 Coeff:     -0.334D-03-0.454D-03-0.105D-02-0.215D-03 0.463D-02 0.409D-02
 Coeff:     -0.117D-01-0.402D-01 0.364D-01 0.148D+00-0.883D-01-0.294D+00
 Coeff:      0.116D+00 0.113D+01
 Gap=     0.252 Goal=   None    Shift=    0.000
 Gap=     0.345 Goal=   None    Shift=    0.000
 RMSDP=2.68D-07 MaxDP=2.76D-05 DE=-8.94D-09 OVMax= 8.77D-05

 Cycle  23  Pass 1  IDiag  1:
 RMSU=  1.16D-07    CP:  1.00D+00  1.40D+00
 E= -2406.04279856874     Delta-E=       -0.000000002200 Rises=F Damp=F
 DIIS: error= 4.38D-07 at cycle  23 NSaved=  20.
 NSaved=20 IEnMin=20 EnMin= -2406.04279856874     IErMin=20 ErrMin= 4.38D-07
 ErrMax= 4.38D-07  0.00D+00 EMaxC= 1.00D-01 BMatC= 3.91D-10 BMatP= 1.40D-09
 IDIUse=1 WtCom= 1.00D+00 WtEn= 0.00D+00
 Coeff-Com:  0.113D-06 0.360D-05 0.171D-04-0.287D-04-0.481D-04-0.140D-03
 Coeff-Com:  0.425D-03 0.622D-04-0.216D-02 0.166D-02 0.887D-02 0.601D-02
 Coeff-Com: -0.327D-01-0.264D-01 0.956D-01 0.833D-01-0.230D+00-0.212D+00
 Coeff-Com:  0.413D+00 0.894D+00
 Coeff:      0.113D-06 0.360D-05 0.171D-04-0.287D-04-0.481D-04-0.140D-03
 Coeff:      0.425D-03 0.622D-04-0.216D-02 0.166D-02 0.887D-02 0.601D-02
 Coeff:     -0.327D-01-0.264D-01 0.956D-01 0.833D-01-0.230D+00-0.212D+00
 Coeff:      0.413D+00 0.894D+00
 Gap=     0.252 Goal=   None    Shift=    0.000
 Gap=     0.345 Goal=   None    Shift=    0.000
 RMSDP=1.13D-07 MaxDP=9.20D-06 DE=-2.20D-09 OVMax= 3.00D-05

 Cycle  24  Pass 1  IDiag  1:
 RMSU=  4.47D-08    CP:  1.00D+00  1.54D+00  1.52D+00
 E= -2406.04279856928     Delta-E=       -0.000000000537 Rises=F Damp=F
 DIIS: error= 2.76D-07 at cycle  24 NSaved=  20.
 NSaved=20 IEnMin=20 EnMin= -2406.04279856928     IErMin=20 ErrMin= 2.76D-07
 ErrMax= 2.76D-07  0.00D+00 EMaxC= 1.00D-01 BMatC= 9.48D-11 BMatP= 3.91D-10
 IDIUse=1 WtCom= 1.00D+00 WtEn= 0.00D+00
 Coeff-Com: -0.282D-06-0.375D-05-0.776D-05-0.298D-04 0.997D-04 0.304D-03
 Coeff-Com:  0.404D-03-0.461D-03-0.140D-02 0.591D-03 0.606D-02 0.693D-02
 Coeff-Com: -0.175D-01-0.330D-01 0.419D-01 0.685D-01-0.734D-01-0.343D+00
 Coeff-Com:  0.106D+00 0.124D+01
 Coeff:     -0.282D-06-0.375D-05-0.776D-05-0.298D-04 0.997D-04 0.304D-03
 Coeff:      0.404D-03-0.461D-03-0.140D-02 0.591D-03 0.606D-02 0.693D-02
 Coeff:     -0.175D-01-0.330D-01 0.419D-01 0.685D-01-0.734D-01-0.343D+00
 Coeff:      0.106D+00 0.124D+01
 Gap=     0.252 Goal=   None    Shift=    0.000
 Gap=     0.345 Goal=   None    Shift=    0.000
 RMSDP=8.07D-08 MaxDP=4.69D-06 DE=-5.37D-10 OVMax= 2.14D-05

 Cycle  25  Pass 1  IDiag  1:
 RMSU=  2.95D-08    CP:  1.00D+00  1.60D+00  2.00D+00  1.80D+00
 E= -2406.04279856950     Delta-E=       -0.000000000229 Rises=F Damp=F
 DIIS: error= 1.44D-07 at cycle  25 NSaved=  20.
 NSaved=20 IEnMin=20 EnMin= -2406.04279856950     IErMin=20 ErrMin= 1.44D-07
 ErrMax= 1.44D-07  0.00D+00 EMaxC= 1.00D-01 BMatC= 2.19D-11 BMatP= 9.48D-11
 IDIUse=1 WtCom= 1.00D+00 WtEn= 0.00D+00
 Coeff-Com: -0.221D-05 0.827D-05-0.115D-04 0.313D-04-0.897D-04 0.950D-05
 Coeff-Com:  0.512D-03-0.474D-03-0.210D-02-0.156D-02 0.674D-02 0.868D-02
 Coeff-Com: -0.212D-01-0.264D-01 0.467D-01 0.706D-01-0.505D-01-0.278D+00
 Coeff-Com: -0.219D+00 0.147D+01
 Coeff:     -0.221D-05 0.827D-05-0.115D-04 0.313D-04-0.897D-04 0.950D-05
 Coeff:      0.512D-03-0.474D-03-0.210D-02-0.156D-02 0.674D-02 0.868D-02
 Coeff:     -0.212D-01-0.264D-01 0.467D-01 0.706D-01-0.505D-01-0.278D+00
 Coeff:     -0.219D+00 0.147D+01
 Gap=     0.252 Goal=   None    Shift=    0.000
 Gap=     0.345 Goal=   None    Shift=    0.000
 RMSDP=5.29D-08 MaxDP=3.24D-06 DE=-2.29D-10 OVMax= 1.54D-05

 Cycle  26  Pass 1  IDiag  1:
 RMSU=  1.71D-08    CP:  1.00D+00  1.64D+00  2.22D+00  2.43D+00  1.76D+00
 E= -2406.04279856960     Delta-E=       -0.000000000097 Rises=F Damp=F
 DIIS: error= 6.48D-08 at cycle  26 NSaved=  20.
 NSaved=20 IEnMin=20 EnMin= -2406.04279856960     IErMin=20 ErrMin= 6.48D-08
 ErrMax= 6.48D-08  0.00D+00 EMaxC= 1.00D-01 BMatC= 4.18D-12 BMatP= 2.19D-11
 IDIUse=1 WtCom= 1.00D+00 WtEn= 0.00D+00
 Coeff-Com: -0.341D-05 0.465D-05 0.678D-06-0.295D-04-0.108D-03 0.146D-04
 Coeff-Com:  0.338D-03 0.161D-03-0.103D-02-0.244D-02 0.284D-02 0.875D-02
 Coeff-Com: -0.568D-02-0.197D-01 0.129D-01 0.799D-01-0.889D-02-0.267D+00
 Coeff-Com: -0.118D+00 0.132D+01
 Coeff:     -0.341D-05 0.465D-05 0.678D-06-0.295D-04-0.108D-03 0.146D-04
 Coeff:      0.338D-03 0.161D-03-0.103D-02-0.244D-02 0.284D-02 0.875D-02
 Coeff:     -0.568D-02-0.197D-01 0.129D-01 0.799D-01-0.889D-02-0.267D+00
 Coeff:     -0.118D+00 0.132D+01
 Gap=     0.252 Goal=   None    Shift=    0.000
 Gap=     0.345 Goal=   None    Shift=    0.000
 RMSDP=2.19D-08 MaxDP=1.20D-06 DE=-9.69D-11 OVMax= 6.45D-06

 Cycle  27  Pass 1  IDiag  1:
 RMSU=  5.97D-09    CP:  1.00D+00  1.65D+00  2.30D+00  2.67D+00  2.12D+00
                    CP:  1.53D+00
 E= -2406.04279856965     Delta-E=       -0.000000000048 Rises=F Damp=F
 DIIS: error= 2.57D-08 at cycle  27 NSaved=  20.
 NSaved=20 IEnMin=20 EnMin= -2406.04279856965     IErMin=20 ErrMin= 2.57D-08
 ErrMax= 2.57D-08  0.00D+00 EMaxC= 1.00D-01 BMatC= 1.11D-12 BMatP= 4.18D-12
 IDIUse=1 WtCom= 1.00D+00 WtEn= 0.00D+00
 Coeff-Com:  0.502D-05-0.783D-05-0.114D-04-0.291D-04-0.680D-05 0.131D-03
 Coeff-Com:  0.133D-03-0.244D-03-0.983D-03 0.200D-03 0.392D-02 0.379D-03
 Coeff-Com: -0.882D-02-0.301D-02 0.272D-01 0.310D-01-0.475D-01-0.255D+00
 Coeff-Com:  0.439D+00 0.813D+00
 Coeff:      0.502D-05-0.783D-05-0.114D-04-0.291D-04-0.680D-05 0.131D-03
 Coeff:      0.133D-03-0.244D-03-0.983D-03 0.200D-03 0.392D-02 0.379D-03
 Coeff:     -0.882D-02-0.301D-02 0.272D-01 0.310D-01-0.475D-01-0.255D+00
 Coeff:      0.439D+00 0.813D+00
 Gap=     0.252 Goal=   None    Shift=    0.000
 Gap=     0.345 Goal=   None    Shift=    0.000
 RMSDP=5.37D-09 MaxDP=3.44D-07 DE=-4.77D-11 OVMax= 1.46D-06

 SCF Done:  E(UwB97XD) =  -2406.04279857     A.U. after   27 cycles
            NFock= 27  Conv=0.54D-08     -V/T= 2.0030
 <Sx>= 0.0000 <Sy>= 0.0000 <Sz>= 2.0000 <S**2>= 6.0768 S= 2.0153
 <L.S>= 0.000000000000E+00
 KE= 2.398959738624D+03 PE=-8.956784927905D+03 EE= 2.527266839052D+03
 Annihilation of the first spin contaminant:
 S**2 before annihilation     6.0768,   after     6.0008
 Leave Link  502 at Thu Aug 24 15:58:41 2017, MaxMem=    33554432 cpu:      3229.0
 (Enter /sw/chem/g09/l801.exe)
 DoSCS=F DFT=T ScalE2(SS,OS)=  1.000000  1.000000
 Range of M.O.s used for correlation:     1   306
 NBasis=   306 NAE=    74 NBE=    70 NFC=     0 NFV=     0
 NROrb=    306 NOA=    74 NOB=    70 NVA=   232 NVB=   236

 **** Warning!!: The largest alpha MO coefficient is  0.16227143D+02


 **** Warning!!: The largest beta MO coefficient is  0.16197270D+02

 Leave Link  801 at Thu Aug 24 15:58:41 2017, MaxMem=    33554432 cpu:         0.2
 (Enter /sw/chem/g09/l1101.exe)
 Using compressed storage, NAtomX=    22.
 Will process     23 centers per pass.
 PrsmSu:  requested number of processors reduced to:   4 ShMem   1 Linda.
 PrsmSu:  requested number of processors reduced to:   4 ShMem   1 Linda.
 R6Disp: Adding Grimme-D2 dispersion energy 1st derivatives to the gradient.
 Leave Link 1101 at Thu Aug 24 15:58:42 2017, MaxMem=    33554432 cpu:         3.2
 (Enter /sw/chem/g09/l1102.exe)
 Symmetrizing basis deriv contribution to polar:
 IMax=3 JMax=2 DiffMx= 0.00D+00
 Leave Link 1102 at Thu Aug 24 15:58:42 2017, MaxMem=    33554432 cpu:         0.5
 (Enter /sw/chem/g09/l1110.exe)
 Forming Gx(P) for the SCF density, NAtomX=    22.
 Integral derivatives from FoFJK, PRISM(SPDF).
 Do as many integral derivatives as possible in FoFJK.
 G2DrvN: MDV=      33554152.
 G2DrvN: will do     2 centers at a time, making   12 passes.
 Estimated number of processors is:    7
 G2DrvN:  IPasSy=1 do centers    0 through    1.
 Calling FoFCou, ICntrl=  3107 FMM=F I1Cent=   0 AccDes= 0.00D+00.
 FoFJK:  IHMeth= 1 ICntrl=    3107 DoSepK=T KAlg= 0 I1Cent=   0 FoldK=F
 IRaf=         1 NMat=   1 IRICut=       1 DoRegI=T DoRafI=F ISym2E= 0.
 FoFCou: FMM=F IPFlag=           0 FMFlag=      100000 FMFlg1=           0
         NFxFlg=           0 DoJE=F BraDBF=F KetDBF=F FulRan=T
         wScrn=  0.000000 ICntrl=    3507 IOpCl=  0 I1Cent=           0 NGrid=           0
         NMat0=    1 NMatS0=      1 NMatT0=    0 NMatD0=    1 NMtDS0=    0 NMtDT0=    0
 Symmetry not used in FoFCou.
 CoulSu:  requested number of processors reduced to:   7 ShMem   1 Linda.
 CoulSu:  requested number of processors reduced to:   7 ShMem   1 Linda.
 G2DrvN:  IPasSy=1 do centers    2 through    3.
 Calling FoFCou, ICntrl=  3107 FMM=F I1Cent=   0 AccDes= 0.00D+00.
 CoulSu:  requested number of processors reduced to:   7 ShMem   1 Linda.
 CoulSu:  requested number of processors reduced to:   7 ShMem   1 Linda.
 G2DrvN:  IPasSy=1 do centers    4 through    5.
 Calling FoFCou, ICntrl=  3107 FMM=F I1Cent=   0 AccDes= 0.00D+00.
 CoulSu:  requested number of processors reduced to:   7 ShMem   1 Linda.
 CoulSu:  requested number of processors reduced to:   7 ShMem   1 Linda.
 G2DrvN:  IPasSy=1 do centers    6 through    7.
 Calling FoFCou, ICntrl=  3107 FMM=F I1Cent=   0 AccDes= 0.00D+00.
 CoulSu:  requested number of processors reduced to:   7 ShMem   1 Linda.
 CoulSu:  requested number of processors reduced to:   7 ShMem   1 Linda.
 G2DrvN:  IPasSy=1 do centers    8 through    9.
 Calling FoFCou, ICntrl=  3107 FMM=F I1Cent=   0 AccDes= 0.00D+00.
 CoulSu:  requested number of processors reduced to:   7 ShMem   1 Linda.
 CoulSu:  requested number of processors reduced to:   7 ShMem   1 Linda.
 G2DrvN:  IPasSy=1 do centers   10 through   11.
 Calling FoFCou, ICntrl=  3107 FMM=F I1Cent=   0 AccDes= 0.00D+00.
 CoulSu:  requested number of processors reduced to:   7 ShMem   1 Linda.
 CoulSu:  requested number of processors reduced to:   7 ShMem   1 Linda.
 G2DrvN:  IPasSy=1 do centers   12 through   13.
 Calling FoFCou, ICntrl=  3107 FMM=F I1Cent=   0 AccDes= 0.00D+00.
 CoulSu:  requested number of processors reduced to:   7 ShMem   1 Linda.
 CoulSu:  requested number of processors reduced to:   7 ShMem   1 Linda.
 G2DrvN:  IPasSy=1 do centers   14 through   15.
 Calling FoFCou, ICntrl=  3107 FMM=F I1Cent=   0 AccDes= 0.00D+00.
 CoulSu:  requested number of processors reduced to:   7 ShMem   1 Linda.
 CoulSu:  requested number of processors reduced to:   7 ShMem   1 Linda.
 G2DrvN:  IPasSy=1 do centers   16 through   17.
 Calling FoFCou, ICntrl=  3107 FMM=F I1Cent=   0 AccDes= 0.00D+00.
 CoulSu:  requested number of processors reduced to:   7 ShMem   1 Linda.
 CoulSu:  requested number of processors reduced to:   7 ShMem   1 Linda.
 G2DrvN:  IPasSy=1 do centers   18 through   19.
 Calling FoFCou, ICntrl=  3107 FMM=F I1Cent=   0 AccDes= 0.00D+00.
 CoulSu:  requested number of processors reduced to:   7 ShMem   1 Linda.
 CoulSu:  requested number of processors reduced to:   7 ShMem   1 Linda.
 G2DrvN:  IPasSy=1 do centers   20 through   21.
 Calling FoFCou, ICntrl=  3107 FMM=F I1Cent=   0 AccDes= 0.00D+00.
 CoulSu:  requested number of processors reduced to:   7 ShMem   1 Linda.
 CoulSu:  requested number of processors reduced to:   7 ShMem   1 Linda.
 G2DrvN:  IPasSy=1 do centers   22 through   22.
 Calling FoFCou, ICntrl=  3107 FMM=F I1Cent=   0 AccDes= 0.00D+00.
 CoulSu:  requested number of processors reduced to:   8 ShMem   1 Linda.
 CoulSu:  requested number of processors reduced to:   7 ShMem   1 Linda.
 End of G2Drv F.D. properties file   721 does not exist.
 End of G2Drv F.D. properties file   722 does not exist.
 End of G2Drv F.D. properties file   788 does not exist.
 Leave Link 1110 at Thu Aug 24 16:06:16 2017, MaxMem=    33554432 cpu:      4602.5
 (Enter /sw/chem/g09/l1002.exe)
 Minotr:  UHF open shell wavefunction.
          IDoAtm=1111111111111111111111
          Direct CPHF calculation.
          Differentiating once with respect to electric field.
                with respect to dipole field.
          Differentiating once with respect to nuclear coordinates.
          Requested convergence is 1.0D-08 RMS, and 1.0D-07 maximum.
          Secondary convergence is 1.0D-12 RMS, and 1.0D-12 maximum.
          NewPWx=T KeepS1=F KeepF1=F KeepIn=T MapXYZ=F SortEE=F KeepMc=T.
          MDV=      33553596 using IRadAn=       1.
 Generate precomputed XC quadrature information.
          Solving linear equations simultaneously, MaxMat=       0.
 FoFJK:  IHMeth= 1 ICntrl=       0 DoSepK=T KAlg= 0 I1Cent=   0 FoldK=F
 IRaf=         1 NMat=   5 IRICut=       1 DoRegI=T DoRafI=F ISym2E= 0.
 FoFCou: FMM=F IPFlag=           0 FMFlag=      100000 FMFlg1=           0
         NFxFlg=           0 DoJE=F BraDBF=F KetDBF=F FulRan=T
         wScrn=  0.000000 ICntrl=     500 IOpCl=  0 I1Cent=           0 NGrid=           0
         NMat0=    5 NMatS0=      5 NMatT0=    0 NMatD0=    5 NMtDS0=    0 NMtDT0=    0
 Symmetry not used in FoFCou.
          There are    69 degrees of freedom in the 1st order CPHF.  IDoFFX=6 NUNeed=     3.
     69 vectors produced by pass  0 Test12= 4.88D-14 1.45D-09 XBig12= 9.39D+01 2.72D+00.
 AX will form     5 AO Fock derivatives at one time.
     69 vectors produced by pass  1 Test12= 4.88D-14 1.45D-09 XBig12= 2.00D+01 1.06D+00.
     67 vectors produced by pass  2 Test12= 4.88D-14 1.45D-09 XBig12= 2.15D+00 2.00D-01.
     66 vectors produced by pass  3 Test12= 4.88D-14 1.45D-09 XBig12= 6.08D-02 4.04D-02.
     66 vectors produced by pass  4 Test12= 4.88D-14 1.45D-09 XBig12= 1.06D-03 3.54D-03.
     66 vectors produced by pass  5 Test12= 4.88D-14 1.45D-09 XBig12= 1.50D-05 4.15D-04.
     66 vectors produced by pass  6 Test12= 4.88D-14 1.45D-09 XBig12= 1.66D-07 5.20D-05.
     51 vectors produced by pass  7 Test12= 4.88D-14 1.45D-09 XBig12= 1.85D-09 5.87D-06.
     24 vectors produced by pass  8 Test12= 4.88D-14 1.45D-09 XBig12= 1.99D-11 5.25D-07.
      4 vectors produced by pass  9 Test12= 4.88D-14 1.45D-09 XBig12= 1.92D-13 3.52D-08.
      3 vectors produced by pass 10 Test12= 4.88D-14 1.45D-09 XBig12= 2.07D-15 3.07D-09.
 InvSVY:  IOpt=1 It=  1 EMax= 1.07D-14
 Solved reduced A of dimension   551 with    69 vectors.
 FullF1:  Do perturbations    1 to     3.
 Isotropic polarizability for W=    0.000000      114.45 Bohr**3.
 End of Minotr F.D. properties file   721 does not exist.
 End of Minotr F.D. properties file   722 does not exist.
 End of Minotr F.D. properties file   788 does not exist.
 Leave Link 1002 at Thu Aug 24 16:31:22 2017, MaxMem=    33554432 cpu:     18051.9
 (Enter /sw/chem/g09/l601.exe)
 Copying SCF densities to generalized density rwf, IOpCl= 1 IROHF=0.

 **********************************************************************

            Population analysis using the SCF density.

 **********************************************************************

 Alpha  occ. eigenvalues -- -216.01396 -66.42399 -66.42373 -24.94483 -24.83046
 Alpha  occ. eigenvalues --  -24.83023 -24.82913 -24.82836 -21.21402 -21.21359
 Alpha  occ. eigenvalues --  -21.20953 -19.29248 -19.27652 -19.27604 -10.30356
 Alpha  occ. eigenvalues --  -10.30208 -10.29765 -10.29719  -5.51854  -5.51828
 Alpha  occ. eigenvalues --   -3.86518  -3.86491  -3.86420  -3.86394  -3.86313
 Alpha  occ. eigenvalues --   -3.86287  -3.11784  -2.06535  -2.06350  -2.05511
 Alpha  occ. eigenvalues --   -1.31485  -1.31377  -1.29430  -1.29402  -1.14623
 Alpha  occ. eigenvalues --   -1.09260  -1.09201  -0.91887  -0.83233  -0.74467
 Alpha  occ. eigenvalues --   -0.70692  -0.68120  -0.64851  -0.60953  -0.59629
 Alpha  occ. eigenvalues --   -0.59469  -0.58573  -0.57999  -0.57319  -0.54878
 Alpha  occ. eigenvalues --   -0.54261  -0.53982  -0.53610  -0.53138  -0.53047
 Alpha  occ. eigenvalues --   -0.52325  -0.52076  -0.51782  -0.51283  -0.50924
 Alpha  occ. eigenvalues --   -0.50242  -0.48584  -0.48268  -0.47340  -0.46508
 Alpha  occ. eigenvalues --   -0.46117  -0.45708  -0.44571  -0.43629  -0.39909
 Alpha  occ. eigenvalues --   -0.38652  -0.38104  -0.37717  -0.29468
 Alpha virt. eigenvalues --   -0.04273  -0.04242   0.00281   0.07724   0.09754
 Alpha virt. eigenvalues --    0.10393   0.12365   0.13052   0.13708   0.14097
 Alpha virt. eigenvalues --    0.14936   0.15469   0.16574   0.17179   0.17933
 Alpha virt. eigenvalues --    0.18430   0.19313   0.19569   0.20221   0.20454
 Alpha virt. eigenvalues --    0.21390   0.22465   0.22736   0.23290   0.24091
 Alpha virt. eigenvalues --    0.25469   0.26785   0.27440   0.29316   0.29951
 Alpha virt. eigenvalues --    0.31564   0.31988   0.33244   0.33990   0.34261
 Alpha virt. eigenvalues --    0.35108   0.35711   0.36193   0.36768   0.37218
 Alpha virt. eigenvalues --    0.38473   0.39836   0.40275   0.42573   0.43760
 Alpha virt. eigenvalues --    0.45441   0.46642   0.48299   0.48808   0.50319
 Alpha virt. eigenvalues --    0.50682   0.51795   0.51911   0.52794   0.53170
 Alpha virt. eigenvalues --    0.53796   0.54730   0.55411   0.57088   0.58035
 Alpha virt. eigenvalues --    0.58341   0.59500   0.60177   0.61501   0.63007
 Alpha virt. eigenvalues --    0.64217   0.64943   0.66597   0.67531   0.69133
 Alpha virt. eigenvalues --    0.71316   0.72154   0.74718   0.75591   0.75853
 Alpha virt. eigenvalues --    0.76565   0.78969   0.79920   0.83131   0.83872
 Alpha virt. eigenvalues --    0.84653   0.90513   0.91123   0.91472   0.94247
 Alpha virt. eigenvalues --    0.95884   1.02210   1.02605   1.05183   1.10731
 Alpha virt. eigenvalues --    1.23836   1.25963   1.28994   1.31283   1.32297
 Alpha virt. eigenvalues --    1.33317   1.34195   1.34476   1.35165   1.35868
 Alpha virt. eigenvalues --    1.36211   1.38035   1.39353   1.39500   1.40050
 Alpha virt. eigenvalues --    1.41005   1.41441   1.41663   1.42600   1.44105
 Alpha virt. eigenvalues --    1.45098   1.45250   1.46431   1.48119   1.48842
 Alpha virt. eigenvalues --    1.50305   1.51708   1.52494   1.53440   1.54736
 Alpha virt. eigenvalues --    1.55699   1.57041   1.58498   1.59991   1.62323
 Alpha virt. eigenvalues --    1.63582   1.64061   1.65897   1.67260   1.69045
 Alpha virt. eigenvalues --    1.71144   1.75213   1.76800   1.80690   1.82157
 Alpha virt. eigenvalues --    1.83373   1.85451   1.86032   1.88643   1.89021
 Alpha virt. eigenvalues --    1.89486   1.91331   1.96339   1.96842   1.98216
 Alpha virt. eigenvalues --    2.00576   2.02111   2.03944   2.08562   2.09410
 Alpha virt. eigenvalues --    2.12822   2.15246   2.17181   2.19326   2.22285
 Alpha virt. eigenvalues --    2.24885   2.27489   2.28773   2.32273   2.33168
 Alpha virt. eigenvalues --    2.33844   2.36255   2.41971   2.45319   2.48938
 Alpha virt. eigenvalues --    2.50852   2.55548   2.58893   2.59981   2.61682
 Alpha virt. eigenvalues --    2.64108   2.66020   2.66447   2.66851   2.69283
 Alpha virt. eigenvalues --    2.70355   2.71693   2.72871   2.73266   2.74301
 Alpha virt. eigenvalues --    2.75624   2.77047   2.79907   2.79956   2.80660
 Alpha virt. eigenvalues --    2.82177   2.82280   2.82965   2.84116   2.84888
 Alpha virt. eigenvalues --    2.85459   2.85961   2.86895   2.87215   2.89261
 Alpha virt. eigenvalues --    2.90415   2.92574   2.93683   2.96349   3.00194
 Alpha virt. eigenvalues --    3.05446   3.08132   3.08237   3.09009   3.10117
 Alpha virt. eigenvalues --    3.17054   3.21885   3.23219   3.24444   3.27263
 Alpha virt. eigenvalues --    3.31974   3.34547   3.35252   3.38549   3.39342
 Alpha virt. eigenvalues --    3.43979   3.45142   3.46169   3.48962   3.51927
 Alpha virt. eigenvalues --    3.53406   3.82989   3.85549  10.05873  10.17692
 Alpha virt. eigenvalues --   21.96365  22.11393  22.20035  22.23621  43.41870
 Alpha virt. eigenvalues --   43.58260  43.63247
  Beta  occ. eigenvalues -- -216.01312 -66.42393 -66.42366 -24.89758 -24.83043
  Beta  occ. eigenvalues --  -24.83020 -24.82914 -24.82837 -21.17739 -21.17715
  Beta  occ. eigenvalues --  -21.16264 -19.29244 -19.27606 -19.27556 -10.30646
  Beta  occ. eigenvalues --  -10.30136 -10.29820 -10.28611  -5.51846  -5.51820
  Beta  occ. eigenvalues --   -3.86510  -3.86483  -3.86413  -3.86388  -3.86302
  Beta  occ. eigenvalues --   -3.86276  -2.98554  -1.93147  -1.92911  -1.89615
  Beta  occ. eigenvalues --   -1.31481  -1.31372  -1.29427  -1.29399  -1.14586
  Beta  occ. eigenvalues --   -1.09017  -1.08977  -0.91427  -0.82141  -0.73207
  Beta  occ. eigenvalues --   -0.70642  -0.66920  -0.64661  -0.60882  -0.59496
  Beta  occ. eigenvalues --   -0.58905  -0.58432  -0.57638  -0.57093  -0.54715
  Beta  occ. eigenvalues --   -0.53573  -0.53378  -0.53119  -0.53077  -0.52888
  Beta  occ. eigenvalues --   -0.52229  -0.51669  -0.51512  -0.51077  -0.50864
  Beta  occ. eigenvalues --   -0.49380  -0.47335  -0.46761  -0.46545  -0.45171
  Beta  occ. eigenvalues --   -0.44666  -0.44556  -0.43918  -0.43305  -0.37536
  Beta virt. eigenvalues --   -0.03083  -0.00617   0.00421   0.00745   0.01790
  Beta virt. eigenvalues --    0.01977   0.04073   0.08307   0.10382   0.11228
  Beta virt. eigenvalues --    0.12903   0.13212   0.13939   0.14373   0.15202
  Beta virt. eigenvalues --    0.16845   0.17473   0.18058   0.18347   0.18609
  Beta virt. eigenvalues --    0.19543   0.19657   0.20512   0.20587   0.21572
  Beta virt. eigenvalues --    0.22597   0.23116   0.23693   0.24403   0.25612
  Beta virt. eigenvalues --    0.27024   0.27749   0.29742   0.30148   0.31970
  Beta virt. eigenvalues --    0.32105   0.33864   0.34318   0.34730   0.35760
  Beta virt. eigenvalues --    0.36150   0.36609   0.37263   0.38399   0.39126
  Beta virt. eigenvalues --    0.40432   0.41025   0.42912   0.44256   0.45881
  Beta virt. eigenvalues --    0.46657   0.48476   0.49368   0.50995   0.51376
  Beta virt. eigenvalues --    0.52468   0.52513   0.52873   0.53806   0.54309
  Beta virt. eigenvalues --    0.55132   0.56081   0.57374   0.58715   0.58970
  Beta virt. eigenvalues --    0.60041   0.60793   0.62437   0.63553   0.64660
  Beta virt. eigenvalues --    0.65117   0.67268   0.67754   0.69834   0.71750
  Beta virt. eigenvalues --    0.72365   0.75110   0.76091   0.76147   0.76754
  Beta virt. eigenvalues --    0.79239   0.80124   0.83613   0.83921   0.84850
  Beta virt. eigenvalues --    0.91073   0.91192   0.91555   0.94332   0.96096
  Beta virt. eigenvalues --    1.02336   1.02709   1.05227   1.10787   1.24303
  Beta virt. eigenvalues --    1.26400   1.30642   1.32053   1.32651   1.33700
  Beta virt. eigenvalues --    1.34375   1.34729   1.35622   1.36667   1.37047
  Beta virt. eigenvalues --    1.38369   1.39494   1.39704   1.40465   1.41387
  Beta virt. eigenvalues --    1.41738   1.41981   1.43218   1.44262   1.45228
  Beta virt. eigenvalues --    1.46339   1.47078   1.49589   1.50793   1.52253
  Beta virt. eigenvalues --    1.52543   1.53412   1.53706   1.55472   1.56207
  Beta virt. eigenvalues --    1.57995   1.59436   1.61143   1.62620   1.64890
  Beta virt. eigenvalues --    1.65565   1.66383   1.67858   1.69514   1.71422
  Beta virt. eigenvalues --    1.75691   1.77195   1.80940   1.82394   1.85345
  Beta virt. eigenvalues --    1.86428   1.86891   1.89699   1.89988   1.91269
  Beta virt. eigenvalues --    1.93353   1.96700   1.97648   2.00946   2.01222
  Beta virt. eigenvalues --    2.03678   2.05570   2.11452   2.12353   2.14486
  Beta virt. eigenvalues --    2.18930   2.20672   2.21245   2.25000   2.27739
  Beta virt. eigenvalues --    2.28977   2.29367   2.33449   2.34199   2.35777
  Beta virt. eigenvalues --    2.36450   2.43492   2.46585   2.50314   2.52131
  Beta virt. eigenvalues --    2.56510   2.59930   2.60982   2.62502   2.64762
  Beta virt. eigenvalues --    2.66662   2.67832   2.68177   2.70125   2.70794
  Beta virt. eigenvalues --    2.72369   2.73576   2.73960   2.75189   2.75946
  Beta virt. eigenvalues --    2.77370   2.80254   2.80810   2.81456   2.82848
  Beta virt. eigenvalues --    2.83057   2.83686   2.84530   2.85240   2.85837
  Beta virt. eigenvalues --    2.86898   2.87500   2.89069   2.90624   2.90999
  Beta virt. eigenvalues --    2.94763   2.98149   2.98914   3.07227   3.08938
  Beta virt. eigenvalues --    3.10053   3.14030   3.14386   3.15344   3.18654
  Beta virt. eigenvalues --    3.22596   3.23869   3.24931   3.27874   3.32396
  Beta virt. eigenvalues --    3.36136   3.37553   3.39358   3.41100   3.44465
  Beta virt. eigenvalues --    3.45500   3.46625   3.49267   3.52467   3.53577
  Beta virt. eigenvalues --    3.86001   3.88378  10.05886  10.17708  21.98380
  Beta virt. eigenvalues --   22.11110  22.19944  22.23613  43.41888  43.58298
  Beta virt. eigenvalues --   43.63299
          Condensed to atoms (all electrons):
               1          2          3          4          5          6
     1  Cr  22.693582   0.220343   0.219937   0.009726  -0.023431  -0.024548
     2  O    0.220343   8.064278  -0.021987  -0.032261   0.005680   0.373208
     3  O    0.219937  -0.021987   8.062345  -0.031972   0.372547   0.005225
     4  O    0.009726  -0.032261  -0.031972   7.804457   0.364588   0.365886
     5  Si  -0.023431   0.005680   0.372547   0.364588  11.618335  -0.066272
     6  Si  -0.024548   0.373208   0.005225   0.365886  -0.066272  11.615574
     7  C    0.182656  -0.018805  -0.015560  -0.004088   0.004088   0.005658
     8  C    0.012144  -0.000951  -0.003543   0.014347  -0.013268  -0.013716
     9  H   -0.002186   0.003015   0.000349   0.000018   0.000070   0.000211
    10  H   -0.007144   0.000149   0.002382   0.000036   0.000225  -0.000108
    11  C    0.003256  -0.000238  -0.000185   0.000032  -0.000935  -0.001177
    12  H   -0.005666  -0.004021   0.001759  -0.003988  -0.000101   0.011469
    13  H   -0.002696   0.001752  -0.001928  -0.004353   0.010597   0.000001
    14  C   -0.000343  -0.000096  -0.000045   0.000026  -0.000052   0.000065
    15  H   -0.000564   0.000003   0.000001   0.000015  -0.000003   0.000041
    16  H    0.000132  -0.000010   0.000023  -0.000005   0.000033   0.000003
    17  H   -0.000028  -0.000002   0.000000   0.000000  -0.000002   0.000001
    18  H    0.000260   0.000058   0.000001  -0.000004  -0.000006   0.000041
    19  F    0.000982   0.000009  -0.009282  -0.006484   0.340149  -0.000669
    20  F    0.001901   0.000001  -0.013255  -0.011064   0.372057  -0.000697
    21  F    0.002290  -0.013314  -0.000002  -0.011279  -0.000534   0.370926
    22  F    0.001113  -0.009535   0.000003  -0.006196  -0.000506   0.340531
               7          8          9         10         11         12
     1  Cr   0.182656   0.012144  -0.002186  -0.007144   0.003256  -0.005666
     2  O   -0.018805  -0.000951   0.003015   0.000149  -0.000238  -0.004021
     3  O   -0.015560  -0.003543   0.000349   0.002382  -0.000185   0.001759
     4  O   -0.004088   0.014347   0.000018   0.000036   0.000032  -0.003988
     5  Si   0.004088  -0.013268   0.000070   0.000225  -0.000935  -0.000101
     6  Si   0.005658  -0.013716   0.000211  -0.000108  -0.001177   0.011469
     7  C    5.410203   0.050546   0.389723   0.374767  -0.110708  -0.046229
     8  C    0.050546   5.617994  -0.027995  -0.022459   0.193612   0.330445
     9  H    0.389723  -0.027995   0.519342  -0.026346  -0.001067  -0.002906
    10  H    0.374767  -0.022459  -0.026346   0.547859   0.006149   0.005235
    11  C   -0.110708   0.193612  -0.001067   0.006149   5.091026  -0.006941
    12  H   -0.046229   0.330445  -0.002906   0.005235  -0.006941   0.592541
    13  H   -0.038043   0.327000   0.004542  -0.003524  -0.003261  -0.021118
    14  C    0.017342  -0.045658   0.007999  -0.001671   0.222489  -0.013292
    15  H    0.018270  -0.062565  -0.000193  -0.000172   0.412599  -0.002985
    16  H   -0.016246  -0.034042   0.000260   0.003992   0.441622   0.005256
    17  H    0.001039   0.005710  -0.000043  -0.000097  -0.031614   0.000035
    18  H   -0.008770   0.009766   0.000059   0.000258  -0.041015   0.000704
    19  F   -0.000619  -0.014057   0.000015  -0.000004   0.000653  -0.000375
    20  F    0.000011  -0.000034   0.000000   0.000000   0.000000   0.000002
    21  F    0.000015  -0.000042   0.000000   0.000000   0.000000   0.000003
    22  F    0.000651  -0.015479  -0.000032   0.000005   0.000111   0.033340
              13         14         15         16         17         18
     1  Cr  -0.002696  -0.000343  -0.000564   0.000132  -0.000028   0.000260
     2  O    0.001752  -0.000096   0.000003  -0.000010  -0.000002   0.000058
     3  O   -0.001928  -0.000045   0.000001   0.000023   0.000000   0.000001
     4  O   -0.004353   0.000026   0.000015  -0.000005   0.000000  -0.000004
     5  Si   0.010597  -0.000052  -0.000003   0.000033  -0.000002  -0.000006
     6  Si   0.000001   0.000065   0.000041   0.000003   0.000001   0.000041
     7  C   -0.038043   0.017342   0.018270  -0.016246   0.001039  -0.008770
     8  C    0.327000  -0.045658  -0.062565  -0.034042   0.005710   0.009766
     9  H    0.004542   0.007999  -0.000193   0.000260  -0.000043   0.000059
    10  H   -0.003524  -0.001671  -0.000172   0.003992  -0.000097   0.000258
    11  C   -0.003261   0.222489   0.412599   0.441622  -0.031614  -0.041015
    12  H   -0.021118  -0.013292  -0.002985   0.005256   0.000035   0.000704
    13  H    0.563189   0.002266  -0.001588  -0.003603  -0.000349   0.000304
    14  C    0.002266   5.467733  -0.037671  -0.059217   0.403297   0.398923
    15  H   -0.001588  -0.037671   0.554598  -0.029736  -0.000265  -0.000538
    16  H   -0.003603  -0.059217  -0.029736   0.569822  -0.003716   0.005504
    17  H   -0.000349   0.403297  -0.000265  -0.003716   0.503047  -0.022044
    18  H    0.000304   0.398923  -0.000538   0.005504  -0.022044   0.512529
    19  F    0.033419  -0.000020  -0.000012   0.000008   0.000000   0.000000
    20  F   -0.000007   0.000000   0.000000   0.000000   0.000000   0.000000
    21  F    0.000002   0.000000   0.000000   0.000000   0.000000   0.000000
    22  F   -0.000069   0.000012   0.000013  -0.000004   0.000000  -0.000034
              19         20         21         22
     1  Cr   0.000982   0.001901   0.002290   0.001113
     2  O    0.000009   0.000001  -0.013314  -0.009535
     3  O   -0.009282  -0.013255  -0.000002   0.000003
     4  O   -0.006484  -0.011064  -0.011279  -0.006196
     5  Si   0.340149   0.372057  -0.000534  -0.000506
     6  Si  -0.000669  -0.000697   0.370926   0.340531
     7  C   -0.000619   0.000011   0.000015   0.000651
     8  C   -0.014057  -0.000034  -0.000042  -0.015479
     9  H    0.000015   0.000000   0.000000  -0.000032
    10  H   -0.000004   0.000000   0.000000   0.000005
    11  C    0.000653   0.000000   0.000000   0.000111
    12  H   -0.000375   0.000002   0.000003   0.033340
    13  H    0.033419  -0.000007   0.000002  -0.000069
    14  C   -0.000020   0.000000   0.000000   0.000012
    15  H   -0.000012   0.000000   0.000000   0.000013
    16  H    0.000008   0.000000   0.000000  -0.000004
    17  H    0.000000   0.000000   0.000000   0.000000
    18  H    0.000000   0.000000   0.000000  -0.000034
    19  F    8.970866  -0.007708   0.000000   0.000000
    20  F   -0.007708   8.957421   0.000000   0.000000
    21  F    0.000000   0.000000   8.958844  -0.007657
    22  F    0.000000   0.000000  -0.007657   8.970309
          Atomic-Atomic Spin Densities.
               1          2          3          4          5          6
     1  Cr   3.313689  -0.038249  -0.037743   0.002344  -0.009978  -0.010272
     2  O   -0.038249   0.043969   0.003713  -0.000710   0.000490   0.005114
     3  O   -0.037743   0.003713   0.042676  -0.000713   0.005163   0.000515
     4  O    0.002344  -0.000710  -0.000713   0.002363  -0.001431  -0.001521
     5  Si  -0.009978   0.000490   0.005163  -0.001431   0.013502   0.000864
     6  Si  -0.010272   0.005114   0.000515  -0.001521   0.000864   0.013808
     7  C   -0.048071   0.001441   0.001483   0.000221  -0.000223   0.000029
     8  C   -0.008021  -0.000519  -0.000691  -0.000020   0.000153   0.000147
     9  H   -0.001523  -0.000035  -0.000036  -0.000002  -0.000003   0.000021
    10  H   -0.001536  -0.000082  -0.000137  -0.000003   0.000027   0.000008
    11  C   -0.002135   0.000017   0.000036  -0.000002  -0.000005   0.000004
    12  H    0.000848  -0.000022  -0.000047   0.000029   0.000073  -0.000112
    13  H    0.000355   0.000003   0.000138   0.000009  -0.000071   0.000056
    14  C    0.000877  -0.000012  -0.000007   0.000000  -0.000013   0.000041
    15  H   -0.000091  -0.000003  -0.000003   0.000000  -0.000014   0.000030
    16  H   -0.000010   0.000000   0.000000   0.000000   0.000009  -0.000006
    17  H    0.000020   0.000000   0.000000   0.000000   0.000000   0.000000
    18  H   -0.000140   0.000003   0.000000   0.000000   0.000001  -0.000011
    19  F    0.000342   0.000001  -0.000390   0.000020  -0.000833  -0.000007
    20  F    0.000058  -0.000001  -0.000030   0.000038  -0.000025  -0.000017
    21  F    0.000065  -0.000060  -0.000001   0.000042  -0.000016  -0.000065
    22  F    0.000325  -0.000377   0.000001   0.000025  -0.000004  -0.000843
               7          8          9         10         11         12
     1  Cr  -0.048071  -0.008021  -0.001523  -0.001536  -0.002135   0.000848
     2  O    0.001441  -0.000519  -0.000035  -0.000082   0.000017  -0.000022
     3  O    0.001483  -0.000691  -0.000036  -0.000137   0.000036  -0.000047
     4  O    0.000221  -0.000020  -0.000002  -0.000003  -0.000002   0.000029
     5  Si  -0.000223   0.000153  -0.000003   0.000027  -0.000005   0.000073
     6  Si   0.000029   0.000147   0.000021   0.000008   0.000004  -0.000112
     7  C   -0.209544   0.000965   0.005192   0.003397   0.008907  -0.003618
     8  C    0.000965   0.072370  -0.001369  -0.001808   0.013035   0.005591
     9  H    0.005192  -0.001369   0.007814  -0.000750   0.000428  -0.000034
    10  H    0.003397  -0.001808  -0.000750   0.012433   0.001239  -0.000043
    11  C    0.008907   0.013035   0.000428   0.001239  -0.080058   0.001118
    12  H   -0.003618   0.005591  -0.000034  -0.000043   0.001118  -0.000685
    13  H    0.005559  -0.010073  -0.000057  -0.000201   0.002944  -0.000733
    14  C    0.012271  -0.041557  -0.000035  -0.000050  -0.078227  -0.001633
    15  H    0.003079  -0.019285   0.000133  -0.000109   0.020950  -0.004139
    16  H   -0.005442   0.017567  -0.000186   0.000184   0.004489   0.000788
    17  H   -0.000058   0.000793   0.000015   0.000003  -0.002801   0.000049
    18  H    0.001413  -0.001840  -0.000230  -0.000013  -0.000024   0.000964
    19  F   -0.000035   0.000030   0.000000   0.000001  -0.000007   0.000005
    20  F    0.000001  -0.000001   0.000000   0.000000   0.000000   0.000000
    21  F    0.000001  -0.000001   0.000000   0.000000   0.000000   0.000000
    22  F   -0.000025   0.000004   0.000001   0.000000  -0.000002  -0.000001
              13         14         15         16         17         18
     1  Cr   0.000355   0.000877  -0.000091  -0.000010   0.000020  -0.000140
     2  O    0.000003  -0.000012  -0.000003   0.000000   0.000000   0.000003
     3  O    0.000138  -0.000007  -0.000003   0.000000   0.000000   0.000000
     4  O    0.000009   0.000000   0.000000   0.000000   0.000000   0.000000
     5  Si  -0.000071  -0.000013  -0.000014   0.000009   0.000000   0.000001
     6  Si   0.000056   0.000041   0.000030  -0.000006   0.000000  -0.000011
     7  C    0.005559   0.012271   0.003079  -0.005442  -0.000058   0.001413
     8  C   -0.010073  -0.041557  -0.019285   0.017567   0.000793  -0.001840
     9  H   -0.000057  -0.000035   0.000133  -0.000186   0.000015  -0.000230
    10  H   -0.000201  -0.000050  -0.000109   0.000184   0.000003  -0.000013
    11  C    0.002944  -0.078227   0.020950   0.004489  -0.002801  -0.000024
    12  H   -0.000733  -0.001633  -0.004139   0.000788   0.000049   0.000964
    13  H   -0.001489   0.000988   0.003147  -0.001464  -0.000023  -0.000158
    14  C    0.000988   1.234605  -0.027849  -0.015595  -0.000022  -0.003792
    15  H    0.003147  -0.027849   0.105781  -0.015001  -0.001050  -0.001182
    16  H   -0.001464  -0.015595  -0.015001   0.030264   0.001370   0.000354
    17  H   -0.000023  -0.000022  -0.001050   0.001370  -0.038284   0.001230
    18  H   -0.000158  -0.003792  -0.001182   0.000354   0.001230  -0.037142
    19  F   -0.000030   0.000000  -0.000001   0.000000   0.000000   0.000000
    20  F    0.000000   0.000000   0.000000   0.000000   0.000000   0.000000
    21  F    0.000000   0.000000   0.000000   0.000000   0.000000   0.000000
    22  F    0.000000   0.000001   0.000001   0.000000   0.000000   0.000000
              19         20         21         22
     1  Cr   0.000342   0.000058   0.000065   0.000325
     2  O    0.000001  -0.000001  -0.000060  -0.000377
     3  O   -0.000390  -0.000030  -0.000001   0.000001
     4  O    0.000020   0.000038   0.000042   0.000025
     5  Si  -0.000833  -0.000025  -0.000016  -0.000004
     6  Si  -0.000007  -0.000017  -0.000065  -0.000843
     7  C   -0.000035   0.000001   0.000001  -0.000025
     8  C    0.000030  -0.000001  -0.000001   0.000004
     9  H    0.000000   0.000000   0.000000   0.000001
    10  H    0.000001   0.000000   0.000000   0.000000
    11  C   -0.000007   0.000000   0.000000  -0.000002
    12  H    0.000005   0.000000   0.000000  -0.000001
    13  H   -0.000030   0.000000   0.000000   0.000000
    14  C    0.000000   0.000000   0.000000   0.000001
    15  H   -0.000001   0.000000   0.000000   0.000001
    16  H    0.000000   0.000000   0.000000   0.000000
    17  H    0.000000   0.000000   0.000000   0.000000
    18  H    0.000000   0.000000   0.000000   0.000000
    19  F    0.001445  -0.000007   0.000000   0.000000
    20  F   -0.000007  -0.000439   0.000000   0.000000
    21  F    0.000000   0.000000  -0.000347  -0.000008
    22  F    0.000000   0.000000  -0.000008   0.001400
 Mulliken charges and spin densities:
               1          2
     1  Cr   0.718283   3.161154
     2  O   -0.567275   0.014681
     3  O   -0.566814   0.013928
     4  O   -0.447437   0.000687
     5  Si   1.016742   0.007664
     6  Si   1.018345   0.007782
     7  C   -0.195901  -0.223059
     8  C   -0.307754   0.025469
     9  H    0.135165   0.009343
    10  H    0.120467   0.012558
    11  C   -0.174409  -0.110096
    12  H    0.126833  -0.001601
    13  H    0.137467  -0.001100
    14  C   -0.362087   1.079990
    15  H    0.150751   0.064393
    16  H    0.119922   0.017320
    17  H    0.145031  -0.038759
    18  H    0.144003  -0.040568
    19  F   -0.306872   0.000533
    20  F   -0.298630  -0.000425
    21  F   -0.299253  -0.000391
    22  F   -0.306577   0.000497
 Sum of Mulliken charges =   0.00000   4.00000
 Mulliken charges and spin densities with hydrogens summed into heavy atoms:
               1          2
     1  Cr   0.718283   3.161154
     2  O   -0.567275   0.014681
     3  O   -0.566814   0.013928
     4  O   -0.447437   0.000687
     5  Si   1.016742   0.007664
     6  Si   1.018345   0.007782
     7  C    0.059731  -0.201158
     8  C   -0.043454   0.022768
    11  C    0.096263  -0.028383
    14  C   -0.073053   1.000663
    19  F   -0.306872   0.000533
    20  F   -0.298630  -0.000425
    21  F   -0.299253  -0.000391
    22  F   -0.306577   0.000497
 APT charges:
               1
     1  Cr   1.622993
     2  O   -1.196948
     3  O   -1.207374
     4  O   -1.130688
     5  Si   2.302178
     6  Si   2.300617
     7  C   -0.051054
     8  C   -0.003845
     9  H   -0.053662
    10  H   -0.066248
    11  C    0.120565
    12  H   -0.005765
    13  H   -0.004795
    14  C   -0.079055
    15  H   -0.046220
    16  H   -0.027097
    17  H    0.022557
    18  H    0.025741
    19  F   -0.621797
    20  F   -0.641308
    21  F   -0.640719
    22  F   -0.618077
 Sum of APT charges =   0.00000
[...]
 0.00326528,0.01379009,-0.00172602,-0.02599926,0.00326882,0.05986553,0.
 00013417,0.00051308,-0.00119634,-0.00014918,-0.00096506,-0.00005202,0.
 00040675,-0.00018914,0.00034667,0.00001921,0.00000522,-0.00008803,0.00
 004408,0.00045954,-0.00018960,-0.00039152,-0.00116269,0.00071306,0.007
 27124,0.00166742,-0.01147991,0.11446603,0.00492936,-0.23838062,-0.0002
 0073,-0.00027056,0.00013419,-0.00066657,0.00278551,-0.00046814,0.00920
 249,-0.00189217,-0.01708812,-0.12559645,-0.00361506,0.26025829,-0.0007
 7938,0.00065774,-0.00050771,0.00028073,0.00001605,0.00031596,0.0000055
 1,-0.00087783,0.00012632,0.00020939,-0.00054287,-0.00036556,0.00129079
 ,0.00065187,0.00029034,-0.00110937,0.00034073,-0.00009570,-0.00311254,
 0.00106518,-0.00039454,-0.30095076,0.01146010,-0.05692544,0.00128365,0
 .00048576,-0.00029757,0.00054218,0.00020433,-0.00031657,-0.00613045,0.
 00054881,-0.00037695,-0.01492625,0.00062735,-0.00394649,0.32287199,0.0
 0297588,-0.00043714,0.00173947,-0.00026737,0.00011469,-0.00049768,-0.0
 0092169,0.00123790,-0.00026292,-0.00043834,0.00015004,0.00033264,-0.00
 026476,-0.00163831,-0.00165956,0.00067035,-0.00011561,0.00017603,0.027
 80186,-0.00413975,0.00550586,0.01224640,-0.04684802,0.00332484,0.00129
 373,-0.00525153,0.00306616,-0.00078847,0.00082822,-0.00041840,-0.02787
 069,-0.00083667,-0.00524283,-0.00046492,-0.00083021,-0.00024760,-0.012
 84426,0.06020732,-0.00018267,-0.00008320,-0.00038425,-0.00044386,-0.00
 027771,0.00030133,-0.00007623,0.00009961,-0.00047968,-0.00049132,0.000
 61153,0.00035991,0.00015367,-0.00258788,0.00002960,0.00106577,0.000235
 16,-0.00003439,-0.01501158,0.00172230,-0.00358319,-0.05585321,0.003331
 40,-0.06401846,-0.00103275,0.00320559,-0.00079069,-0.00017130,-0.00072
 607,0.00022404,-0.01843271,-0.00103175,-0.00418733,0.02746152,-0.00141
 293,0.00782433,0.06390061,-0.00290656,0.06579366,0.00002349,0.00034430
 ,-0.00053060,-0.00045482,-0.00024115,0.00067983,0.00054431,-0.00011232
 ,0.00031640,-0.00014976,-0.00003611,0.00022661,-0.00012508,0.00010440,
 -0.00051159,0.00045082,0.00041909,-0.00049872,0.00028760,0.00068701,0.
 00020133,-0.01221458,-0.00732684,-0.00783939,-0.00003830,-0.00002420,-
 0.00022491,-0.00018369,-0.00006369,0.00001640,-0.23139407,-0.01281601,
 -0.02208762,0.00137394,0.00135167,0.00104235,0.00055478,-0.00018177,0.
 00025725,0.54941415,-0.00006018,0.00073745,0.00087395,0.00029912,0.000
 20245,-0.00089481,-0.00062969,-0.00020866,-0.00057405,0.00006135,0.000
 11508,-0.00042194,0.00053175,-0.00007782,0.00096749,-0.00029379,-0.000
 59351,0.00100407,-0.00108234,-0.00039719,-0.00042091,-0.02704928,-0.00
 166690,-0.00609680,-0.00011062,-0.00044618,-0.00012487,0.00008693,0.00
 009427,0.00014018,-0.01035437,-0.05532497,-0.02064989,-0.00015009,0.00
 066383,0.00064472,-0.00141410,-0.00400841,-0.00281314,0.01214752,0.201
 44606,-0.00049806,0.00025339,-0.00031666,0.00018737,-0.00003493,0.0002
 8278,0.00038009,-0.00035516,0.00024390,0.00024024,-0.00018642,-0.00002
 826,-0.00008191,0.00068150,0.00005514,-0.00051017,0.00018134,-0.000289
 38,0.00015664,0.00110304,0.00044955,-0.02386298,-0.00299947,-0.0069889
 7,0.00031850,-0.00040904,0.00034958,0.00001615,-0.00028785,0.00000292,
 -0.02216029,-0.02093301,-0.08258572,-0.00131794,0.00073711,0.00080460,
 -0.00141074,-0.00427423,-0.00166657,-0.01741630,0.24584252,0.50001506,
 0.00013519,-0.00034967,0.00015978,0.00011564,0.00005682,-0.00023077,-0
 .00031448,0.00017020,-0.00011993,-0.00009570,0.00003816,-0.00001254,0.
 00020345,-0.00028091,0.00006306,0.00009587,-0.00002190,0.00014065,0.00
 045787,-0.00180938,-0.00078456,0.00232650,-0.00675752,0.00354999,-0.00
 000010,-0.00024761,0.00001570,0.00001766,0.00024530,-0.00013880,-0.063
 60203,0.06739721,-0.04038446,-0.00013440,0.00047650,-0.00003251,0.0002
 9699,-0.00019451,0.00045355,-0.01956300,0.02084688,-0.01637845,0.07600
 971,0.00046993,-0.00073102,0.00121325,0.00044799,0.00041672,-0.0013315
 7,-0.00117126,0.00048443,-0.00070250,-0.00014135,0.00036545,-0.0002645
 6,0.00053572,-0.00101789,0.00078910,0.00020767,-0.00092173,0.00097998,
 -0.00138746,-0.00410252,-0.00353256,0.00690209,-0.02432186,0.01318803,
 -0.00003898,0.00029036,-0.00000405,-0.00004993,0.00026225,-0.00015915,
 0.05440771,-0.19829708,0.09822724,0.00064321,0.00073507,-0.00004117,-0
 .00041671,0.00070509,0.00064094,0.00455661,0.00531138,-0.00121939,-0.0
 6551239,0.22156759,-0.00007989,-0.00055219,0.00030171,0.00019672,0.000
 22200,-0.00036284,-0.00020607,0.00014307,-0.00013135,0.00007610,0.0001
 3016,-0.00004616,-0.00009926,-0.00022338,0.00017799,-0.00004316,-0.000
 41854,0.00014350,-0.00074915,-0.00274976,-0.00081997,0.00462201,-0.016
 96816,0.00746385,-0.00006899,0.00007266,-0.00005996,-0.00007419,-0.000
 15067,0.00013866,-0.03340724,0.10242886,-0.10760111,0.00039876,0.00046
 090,0.00062945,0.00031436,0.00066507,0.00078999,-0.00677660,0.00188232
 ,-0.00176617,0.04461993,-0.10856019,0.11697551,0.00006677,0.00015327,0
 .00002564,0.00005239,-0.00008852,-0.00007694,-0.00008891,0.00003448,-0
 .00002979,-0.00003595,-0.00001803,-0.00003677,0.00013362,-0.00008966,-
 0.00000703,-0.00008600,0.00004213,0.00018188,-0.00003110,0.00057533,-0
 .00033130,0.00424057,-0.00004166,-0.00800457,-0.00004320,-0.00007610,0
 .00009806,-0.00001338,0.00030971,0.00017859,-0.11232533,-0.00361745,0.
 11307685,0.00026502,-0.00185202,-0.00110466,0.00035875,0.00049172,-0.0
 0009379,-0.02045577,0.00325270,0.02773578,0.00529642,-0.00001590,-0.00
 813667,0.12640652,-0.00003434,0.00044789,-0.00065408,-0.00011840,-0.00
 044414,0.00040648,0.00025225,-0.00018460,0.00027175,-0.00012410,-0.000
 19014,0.00000243,0.00013537,0.00035749,-0.00027171,-0.00002597,0.00061
 212,0.00014429,0.00074236,0.00190078,-0.00062588,0.01388589,-0.0016398
 5,-0.02433910,0.00010330,-0.00011910,0.00006934,-0.00029101,-0.0001624
 3,0.00060897,-0.00424167,-0.04768437,0.00091808,-0.00133595,-0.0043331
 4,-0.00320776,0.00002437,0.00083899,0.00080516,0.00148789,0.00014732,0
 .00132590,-0.01276049,-0.00054890,0.02325757,0.00230553,0.05076336,0.0
 0015957,0.00040308,-0.00007349,-0.00001502,-0.00024679,0.00003667,-0.0
 0023937,-0.00005642,0.00004277,-0.00024794,-0.00015626,-0.00002502,0.0
 0051288,0.00010517,-0.00011230,0.00012394,0.00054467,0.00032409,-0.000
 39616,0.00111858,0.00147832,0.00782765,-0.00026331,-0.01578282,0.00006
 663,-0.00010944,-0.00002521,0.00008597,-0.00080908,0.00044785,0.112230
 42,-0.00059872,-0.23874143,-0.00161983,-0.00299747,-0.00064648,-0.0003
 9581,0.00010444,-0.00004934,-0.00387098,0.00034106,0.00728425,0.008554
 28,0.00070118,-0.01554029,-0.12140950,0.00146701,0.26027215,-0.0001456
 2,0.00016796,0.00022195,0.00023403,0.00005147,-0.00028735,-0.00014423,
 -0.00012114,-0.00010639,0.00010412,-0.00004829,-0.00016767,0.00013584,
 0.00023358,0.00036793,-0.00030263,-0.00009455,0.00030670,0.00016070,0.
 00022901,-0.00001985,-0.00548015,0.00153977,-0.00058560,0.00005211,-0.
 00019303,0.00017373,0.00000384,-0.00004538,0.00003538,-0.00243589,-0.0
 1610227,-0.02087694,0.00004310,0.00005522,-0.00016653,-0.00027751,-0.0
 0149823,-0.00091169,-0.08867402,-0.05116566,-0.07620434,-0.00066626,0.
 00043158,-0.00048260,0.00120156,-0.00019644,0.00057293,0.08708191,-0.0
 0007140,0.00007581,-0.00017154,-0.00002112,-0.00010348,0.00011738,0.00
 011425,-0.00007974,0.00009886,-0.00001509,-0.00006873,0.00001529,0.000
 02539,0.00018288,-0.00004974,0.00001790,0.00020808,-0.00003280,-0.0001
 8159,0.00008920,-0.00001550,-0.00074526,-0.00036038,-0.00103146,0.0000
 8922,0.00007882,-0.00007026,-0.00009645,-0.00005383,0.00002884,0.00147
 357,0.00378315,0.00163843,0.00008988,0.00006508,0.00018813,-0.00008956
 ,-0.00009915,0.00001070,-0.05302256,-0.09962202,-0.14276996,-0.0005004
 7,-0.00109798,-0.00056978,0.00012999,-0.00013777,-0.00025247,0.0569033
 3,0.09761045,0.00013325,0.00016935,0.00011549,-0.00001683,-0.00005671,
 -0.00013938,-0.00018005,-0.00001095,-0.00010740,-0.00007153,-0.0000043
 0,-0.00007127,0.00018739,-0.00000354,0.00017314,0.00010052,0.00009341,
 0.00026886,0.00004062,0.00015819,-0.00000108,-0.00053000,0.00104932,0.
 00091203,0.00007979,0.00007793,-0.00011107,-0.00004542,-0.00003913,0.0
 0002654,0.00293168,-0.00272758,0.00001382,0.00013533,0.00020870,0.0003
 3974,-0.00001397,-0.00032165,0.00009824,-0.07714527,-0.13768428,-0.229
 24091,0.00017807,0.00036356,0.00031259,-0.00075989,0.00047986,0.000941
 47,0.08336656,0.14738764,0.23591524,-0.00015946,-0.00015115,0.00007875
 ,0.00013619,0.00012342,-0.00009665,0.00006371,0.00000680,-0.00000570,0
 .00014678,0.00002679,-0.00004139,-0.00016196,0.00004207,0.00008235,-0.
 00024602,-0.00028327,-0.00001628,0.00009309,-0.00027517,-0.00012524,0.
 00125371,0.00105108,0.00125861,-0.00002333,-0.00026489,0.00023053,0.00
 009878,0.00018693,-0.00007166,-0.01251171,0.00686846,0.02164424,-0.000
 03467,-0.00061518,-0.00095762,0.00040389,0.00016782,-0.00024870,-0.179
 17387,0.05529050,0.13068999,-0.00049930,0.00033076,-0.00020626,-0.0049
 9030,0.00017876,-0.00168258,0.00907575,-0.00405713,-0.00824158,0.18634
 380,-0.00016450,-0.00011647,-0.00017972,0.00006663,0.00000888,0.000255
 96,0.00018284,-0.00002753,0.00013594,0.00005605,-0.00006379,0.00010058
 ,-0.00014677,0.00010723,-0.00019959,-0.00009586,0.00016582,-0.00037052
 ,0.00006392,-0.00000305,0.00006935,-0.00028914,0.00066716,0.00158809,-
 0.00016304,-0.00032054,0.00015105,0.00003802,0.00004414,-0.00000624,-0
 .00145079,0.00271785,-0.00119372,0.00014326,0.00029406,-0.00005858,0.0
 0011179,-0.00004396,-0.00004113,0.05299676,-0.04686405,-0.07631474,-0.
 00091628,-0.00002590,0.00063482,-0.00159646,0.00066897,0.00094152,0.00
 988390,-0.00026457,-0.00907022,-0.05880555,0.04322200,0.00011903,0.000
 02192,0.00019531,-0.00001500,0.00008846,-0.00018718,-0.00010264,0.0000
 4470,-0.00009525,-0.00000025,0.00007394,-0.00003801,0.00002926,-0.0001
 3627,0.00008000,0.00000073,-0.00027471,0.00015908,-0.00000491,-0.00011
 096,-0.00002474,-0.00020416,-0.00006248,0.00126413,0.00005382,0.000310
 13,-0.00014310,-0.00008314,0.00001112,-0.00004150,-0.00598229,0.002018
 54,0.00723772,0.00041714,0.00033728,-0.00010439,0.00003348,0.00021010,
 -0.00001608,0.13385205,-0.08126060,-0.18667637,0.00038729,0.00019450,-
 0.00056700,-0.00124607,-0.00052955,0.00035860,0.01505312,-0.00449970,-
 0.00920595,-0.14233829,0.08332195,0.18783434,0.00255592,-0.00075307,0.
 00260305,-0.00130810,0.00074785,-0.00139356,-0.00059916,0.01112736,-0.
 00311516,-0.01398470,0.01174662,0.00986604,-0.09236133,0.11558082,0.02
 856615,0.00819269,-0.00076980,0.00030902,-0.00021506,0.00009872,-0.000
 02736,0.00067377,-0.00040829,-0.00029428,-0.00002624,-0.00003606,-0.00
 017023,-0.00009206,-0.00014029,-0.00018418,-0.00040067,0.00039139,0.00
 013320,0.00026984,0.00013591,0.00006675,-0.00102660,0.00026250,-0.0000
 8289,0.00004713,-0.00029354,-0.00012167,-0.00004022,-0.00010586,0.0000
 5083,-0.00003353,-0.00004155,-0.00016955,-0.00010012,-0.00001898,-0.00
 006295,0.00004104,0.00003472,0.00000035,0.09566844,-0.00737064,-0.0014
 6831,-0.00297723,0.00133338,0.00040363,-0.00064486,0.01780915,-0.01104
 266,0.00706928,0.00622764,0.00232105,-0.00142132,0.10812953,-0.2516447
 6,-0.05977510,-0.00339981,-0.00195707,0.00090190,-0.00036201,-0.001002
 69,-0.00010154,0.00166392,0.00000451,0.00041314,-0.00025340,0.00074952
 ,0.00019786,0.00036014,0.00050702,0.00008921,-0.00044637,0.00029787,-0
 .00028180,-0.00005534,-0.00005903,-0.00009538,0.00001573,0.00007249,0.
 00109477,-0.00000994,0.00008047,-0.00022753,0.00013194,0.00040632,0.00
 004909,0.00006782,-0.00006999,0.00004894,-0.00008519,-0.00005762,0.000
 01111,-0.00004235,-0.00004694,0.00004327,-0.12769287,0.27755607,0.0050
 1294,-0.00020755,-0.00189995,0.00026528,-0.00130636,0.00497787,-0.0107
 8639,0.01327861,0.00059203,0.01847134,-0.00862800,-0.00116976,0.024266
 29,-0.05591660,-0.04525557,-0.00819099,0.00162806,-0.00425889,-0.00023
 527,-0.00015860,0.00012765,0.00119934,-0.00031252,-0.00011009,-0.00019
 556,0.00012789,-0.00007945,0.00008246,-0.00000003,0.00016270,-0.000463
 97,0.00027246,0.00010779,-0.00041763,-0.00005072,0.00000420,-0.0000636
 7,0.00061262,-0.00012779,0.00007747,-0.00022896,-0.00011123,0.00004696
 ,-0.00002516,-0.00002054,0.00003754,0.00001969,0.00006713,-0.00011792,
 -0.00001332,-0.00003542,-0.00003078,0.00002855,0.00000206,-0.03228933,
 0.06489517,0.04512475,0.00359179,-0.00087812,0.00260809,-0.00165411,0.
 00119959,-0.00154015,-0.00678134,-0.00316833,-0.01175011,-0.02031160,-
 0.00943332,-0.00055925,-0.17903748,-0.11627673,-0.09978338,0.00951141,
 -0.00343639,-0.00112122,-0.00021075,0.00053122,-0.00016686,-0.00030351
 ,-0.00017093,-0.00025044,0.00003804,-0.00030238,-0.00019707,-0.0001580
 9,-0.00025461,-0.00012005,0.00003705,0.00010468,0.00014737,0.00015630,
 0.00005802,0.00002344,-0.00013983,0.00003040,0.00013874,0.00005409,-0.
 00013445,0.00001599,-0.00003663,-0.00013075,0.00001243,-0.00001433,-0.
 00000156,-0.00009227,-0.00004764,-0.00000872,-0.00005364,0.00003135,0.
 00004015,-0.00000767,0.00536381,0.00279275,0.00064471,0.19307972,-0.00
 154132,-0.00084792,0.00025373,-0.00060378,0.00132034,-0.00135489,0.002
 58969,0.00582893,0.00460740,-0.01241101,0.00334097,-0.00024409,-0.1103
 2176,-0.12344617,-0.07865057,0.00432011,-0.00358011,-0.00010156,0.0000
 4053,-0.00027179,-0.00011692,0.00035922,-0.00006038,0.00018439,-0.0000
 7930,0.00019411,0.00004374,0.00007683,0.00008277,-0.00001727,-0.000114
 29,0.00013495,-0.00008039,0.00002595,0.00000086,-0.00003744,-0.0000240
 2,0.00013141,0.00032633,0.00001181,-0.00000817,-0.00006552,0.00002686,
 0.00009024,0.00002088,0.00001323,-0.00003091,-0.00001919,-0.00004077,-
 0.00002610,-0.00001657,-0.00000242,-0.00000503,0.00001469,-0.01023077,
 -0.01606998,-0.01360048,0.12936754,0.13230153,0.00774952,-0.00045050,-
 0.00095087,-0.00054341,-0.00114863,0.00440230,-0.02229060,-0.00215303,
 -0.01218522,0.01081820,0.00353533,0.00488890,-0.09822515,-0.08092497,-
 0.09617726,-0.00425041,0.00171064,-0.00413610,-0.00036933,0.00058929,0
 .00004900,0.00005547,-0.00016409,-0.00047085,-0.00002070,-0.00035795,-
 0.00026343,-0.00013063,-0.00023822,0.00003136,-0.00004718,0.00004400,0
 .00024755,-0.00006745,-0.00007803,0.00004286,-0.00001937,0.00013868,0.
 00005607,0.00010009,-0.00016191,0.00001377,-0.00001429,-0.00014125,-0.
 00002609,0.00000071,0.00004367,0.00000027,-0.00006422,0.00000729,-0.00
 003940,-0.00000667,0.00004203,-0.00001422,-0.00487175,-0.00866436,0.00
 138029,0.11076414,0.08831449,0.10185659,-0.00352563,0.00034456,-0.0004
 8850,0.00797940,0.00081936,-0.00556559,0.00192189,-0.00162760,0.003640
 72,-0.01438063,0.01048358,0.01703494,0.00644040,0.00349478,-0.00794146
 ,-0.04371349,0.03471898,0.05116727,0.00016709,-0.00001134,0.00006759,-
 0.00018122,0.00004111,0.00009165,0.00004192,0.00003712,0.00010023,0.00
 000838,-0.00001049,-0.00004130,0.00007938,-0.00008292,-0.00001103,-0.0
 0017381,0.00002763,-0.00001273,0.00011619,-0.00009310,-0.00011861,-0.0
 0006365,0.00005683,0.00006270,-0.00000932,-0.00000826,0.00000663,0.000
 01492,0.00000841,-0.00000440,0.00004519,0.00000389,-0.00000010,0.00001
 985,0.00000151,-0.00000320,-0.00159355,0.00059489,0.00149260,-0.001007
 01,-0.00049060,0.00062580,0.04222828,0.00119399,-0.00088359,-0.0006554
 5,0.00121915,0.00590452,0.00409453,-0.00034525,0.00139295,-0.00147836,
 0.01002894,0.00258561,-0.00889267,-0.00374837,-0.00370225,0.00297046,0
 .03160366,-0.13610449,-0.13725878,-0.00009830,-0.00022773,-0.00007160,
 -0.00011547,-0.00003123,0.00040776,-0.00006463,0.00006376,0.00003585,0
 .00007162,0.00016731,-0.00002975,-0.00001028,0.00010712,-0.00012633,0.
 00014783,0.00011359,0.00016021,-0.00002974,0.00000249,-0.00001768,-0.0
 0004290,0.00005123,-0.00001299,-0.00001170,0.00007316,0.00005009,-0.00
 000026,-0.00005086,-0.00007788,0.00000252,-0.00003502,-0.00002999,0.00
 005086,-0.00001249,0.00003799,0.00086847,-0.00000865,-0.00065119,0.000
 75263,0.00087369,0.00003319,-0.03991446,0.14623347,-0.00579478,-0.0009
 6446,0.00614469,0.00493595,-0.00464425,-0.02706337,0.00267976,-0.00013
 261,0.00086414,0.00581209,-0.00382503,-0.00037579,-0.00473148,-0.00075
 305,-0.00105337,0.04956790,-0.14295798,-0.22044569,0.00026861,0.000797
 57,-0.00035185,-0.00026500,-0.00023343,-0.00045678,0.00016550,-0.00032
 522,-0.00015829,-0.00020551,-0.00049864,-0.00026637,0.00012492,0.00010
 073,0.00023641,0.00010455,0.00013228,-0.00000579,-0.00000203,-0.000035
 11,0.00005780,0.00010443,-0.00019650,0.00005850,-0.00003926,-0.0001982
 2,-0.00001749,-0.00002500,0.00000392,-0.00006986,-0.00006813,-0.000000
 79,-0.00006840,0.00001883,0.00007072,-0.00002049,0.00099028,-0.0004503
 7,-0.00003152,0.00090291,0.00046967,0.00077239,-0.05560056,0.15772584,
 0.24047921,-0.00298270,0.00041085,-0.00165994,0.00651502,-0.00010459,-
 0.00201834,0.00182085,-0.00143159,0.00403487,-0.02262018,-0.01364081,0
 .00901044,0.00682817,0.00140130,-0.00964753,-0.10375624,-0.12634817,0.
 02290509,0.00004125,-0.00017027,0.00012937,0.00016555,0.00009986,0.000
 26089,0.00004891,0.00010367,0.00025717,0.00011936,0.00010727,0.0000060
 9,-0.00003492,-0.00017482,-0.00003464,-0.00089686,0.00024848,0.0005485
 2,0.00023787,-0.00011254,-0.00027976,-0.00025974,0.00016454,0.00015941
 ,0.00000612,0.00004556,0.00003233,0.00008127,0.00004733,0.00000911,0.0
 0013592,-0.00001910,-0.00003200,0.00009267,0.00000885,0.00004138,-0.00
 103129,0.00059104,0.00119458,-0.00216124,-0.00097173,0.00080723,0.0055
 8540,-0.00155831,0.00105602,0.11206480,0.00359557,-0.00145707,-0.00665
 034,-0.00906565,-0.00967151,0.01675907,-0.00140840,0.00042098,0.000280
 29,-0.00494062,0.00277225,0.00292240,0.00293295,-0.00202897,-0.0012644
 1,-0.12290623,-0.24359850,0.03307117,0.00021922,-0.00092270,-0.0003047
 4,-0.00064417,0.00017694,0.00156207,-0.00023433,0.00044745,0.00028670,
 0.00025939,0.00072273,-0.00001461,0.00002335,0.00017088,-0.00051203,0.
 00038520,-0.00012438,0.00042961,0.00002944,-0.00003986,-0.00018535,-0.
 00022963,0.00036831,-0.00003454,-0.00002703,0.00035672,0.00017521,0.00
 002018,-0.00014069,-0.00018862,0.00009263,-0.00008707,-0.00003417,0.00
 017285,-0.00010181,0.00014571,-0.00050330,0.00102876,0.00023643,-0.000
 68069,0.00004676,0.00002433,-0.00839388,-0.01651259,-0.00408505,0.1413
 0318,0.26817338,-0.00414117,-0.00051057,0.00394533,0.00613917,0.017356
 13,-0.00794168,0.00237664,-0.00052006,0.00171602,0.00025272,0.00131152
 ,0.00702635,-0.00140849,0.00081768,-0.00270642,0.02711342,0.04071599,-
 0.04170588,0.00021493,-0.00001582,-0.00013826,-0.00086271,-0.00020259,
 0.00081072,0.00003995,-0.00009999,0.00000931,0.00000609,0.00001244,-0.
 00024314,0.00035854,0.00032993,-0.00026193,0.00051310,0.00015478,-0.00
 139781,0.00015120,-0.00000934,-0.00019715,0.00002773,-0.00016762,0.000
 11018,-0.00003368,-0.00011805,0.00002573,-0.00007304,-0.00019604,-0.00
 018736,-0.00003909,-0.00001524,-0.00009689,0.00006607,0.00009391,0.000
 00307,0.00019723,-0.00017424,0.00055376,0.00038432,0.00006957,0.000522
 09,-0.00450265,-0.01621326,0.00177193,-0.02678028,-0.04261913,0.038382
 03\\0.00001659,0.00010670,0.00022701,0.00023495,-0.00012577,-0.0000627
 2,-0.00025237,-0.00003995,0.00010268,0.00005244,-0.00003720,0.00014229
 ,0.00048885,0.00004974,0.00017002,-0.00033350,0.00027861,0.00040657,0.
 00005490,-0.00000837,0.00014167,0.00005471,-0.00010441,-0.00017679,-0.
 00004979,-0.00005764,-0.00008320,0.00006806,0.00002569,0.00001753,-0.0
 0002188,-0.00003059,0.00004715,-0.00002621,-0.00001393,-0.00003684,-0.
 00003772,0.00003879,0.00001712,-0.00007188,0.00009484,-0.00013577,0.00
 000101,-0.00000242,0.00004032,0.00003938,0.00000876,0.00001681,0.00001
 902,-0.00006799,0.00006328,-0.00000037,0.00000691,0.00004753,-0.000044
 86,-0.00041835,-0.00021050,-0.00062332,0.00006048,-0.00028260,-0.00009
 250,0.00016198,0.00010960,0.00052450,0.00007411,-0.00056116\\\@


 TIME IS NATURE'S WAY OF MAKING SURE EVERYTHING
 DOESN'T HAPPEN AT ONCE.
                     - WOODY ALLEN
 Job cpu time:       0 days  8 hours  0 minutes 58.6 seconds.
 File lengths (MBytes):  RWF=    488 Int=      0 D2E=      0 Chk=      8 Scr=      1
 Normal termination of Gaussian 09 at Thu Aug 24 16:37:35 2017.
28758.097u 100.621s 43:31.37 1105.1%	0+0k 977416+1538568io 37pf+0w
