 Entering Gaussian System, Link 0=/sw/chem/g09/g09
 Initial command:
 /sw/chem/g09/l1.exe "/scratch_local/craigv/5VRigidFreq/Gau-54950.inp" -scrdir="/scratch_local/craigv/5VRigidFreq/"
 Entering Link 1 = /sw/chem/g09/l1.exe PID=     54951.
  
 Copyright (c) 1988,1990,1992,1993,1995,1998,2003,2009,2013,
            Gaussian, Inc.  All Rights Reserved.
  
 This is part of the Gaussian(R) 09 program.  It is based on
 the Gaussian(R) 03 system (copyright 2003, Gaussian, Inc.),
 the Gaussian(R) 98 system (copyright 1998, Gaussian, Inc.),
 the Gaussian(R) 94 system (copyright 1995, Gaussian, Inc.),
 the Gaussian 92(TM) system (copyright 1992, Gaussian, Inc.),
 the Gaussian 90(TM) system (copyright 1990, Gaussian, Inc.),
 the Gaussian 88(TM) system (copyright 1988, Gaussian, Inc.),
 the Gaussian 86(TM) system (copyright 1986, Carnegie Mellon
 University), and the Gaussian 82(TM) system (copyright 1983,
 Carnegie Mellon University). Gaussian is a federally registered
 trademark of Gaussian, Inc.
  
 This software contains proprietary and confidential information,
 including trade secrets, belonging to Gaussian, Inc.
  
 This software is provided under written license and may be
 used, copied, transmitted, or stored only in accord with that
 written license.
  
 The following legend is applicable only to US Government
 contracts under FAR:
  
                    RESTRICTED RIGHTS LEGEND
  
 Use, reproduction and disclosure by the US Government is
 subject to restrictions as set forth in subparagraphs (a)
 and (c) of the Commercial Computer Software - Restricted
 Rights clause in FAR 52.227-19.
  
 Gaussian, Inc.
 340 Quinnipiac St., Bldg. 40, Wallingford CT 06492
  
  
 ---------------------------------------------------------------
 Warning -- This program may not be used in any manner that
 competes with the business of Gaussian, Inc. or will provide
 assistance to any competitor of Gaussian, Inc.  The licensee
 of this program is prohibited from giving any competitor of
 Gaussian, Inc. access to this program.  By using this program,
 the user acknowledges that Gaussian, Inc. is engaged in the
 business of creating and licensing software in the field of
 computational chemistry and represents and warrants to the
 licensee that it is not a competitor of Gaussian, Inc. and that
 it will not use this program in any manner prohibited above.
 ---------------------------------------------------------------
  

 Cite this work as:
 Gaussian 09, Revision D.01,
 M. J. Frisch, G. W. Trucks, H. B. Schlegel, G. E. Scuseria, 
 M. A. Robb, J. R. Cheeseman, G. Scalmani, V. Barone, B. Mennucci, 
 G. A. Petersson, H. Nakatsuji, M. Caricato, X. Li, H. P. Hratchian, 
 A. F. Izmaylov, J. Bloino, G. Zheng, J. L. Sonnenberg, M. Hada, 
 M. Ehara, K. Toyota, R. Fukuda, J. Hasegawa, M. Ishida, T. Nakajima, 
 Y. Honda, O. Kitao, H. Nakai, T. Vreven, J. A. Montgomery, Jr., 
 J. E. Peralta, F. Ogliaro, M. Bearpark, J. J. Heyd, E. Brothers, 
 K. N. Kudin, V. N. Staroverov, T. Keith, R. Kobayashi, J. Normand, 
 K. Raghavachari, A. Rendell, J. C. Burant, S. S. Iyengar, J. Tomasi, 
 M. Cossi, N. Rega, J. M. Millam, M. Klene, J. E. Knox, J. B. Cross, 
 V. Bakken, C. Adamo, J. Jaramillo, R. Gomperts, R. E. Stratmann, 
 O. Yazyev, A. J. Austin, R. Cammi, C. Pomelli, J. W. Ochterski, 
 R. L. Martin, K. Morokuma, V. G. Zakrzewski, G. A. Voth, 
 P. Salvador, J. J. Dannenberg, S. Dapprich, A. D. Daniels, 
 O. Farkas, J. B. Foresman, J. V. Ortiz, J. Cioslowski, 
 and D. J. Fox, Gaussian, Inc., Wallingford CT, 2013.
 
 ******************************************
 Gaussian 09:  ES64L-G09RevD.01 24-Apr-2013
                23-Aug-2017 
 ******************************************
 %nprocshared=12
 Will use up to   12 processors via shared memory.
 -------------------------------------------------------
 #p wb97xd/gen nosymm freq temp=373.15 punch=derivatives
 -------------------------------------------------------
 1/10=4,30=1,38=1,112=373150/1,3;
 2/12=2,15=1,17=6,18=5,40=1/2;
 3/5=7,11=2,16=1,25=1,30=1,71=2,74=-58,140=1/1,2,3;
 4//1;
 5/5=2,38=5,98=1/2;
 8/6=4,10=90,11=11/1;
 11/6=1,8=1,9=11,15=111,16=1,31=1/1,2,10;
 10/6=1,31=1/2;
 6/7=2,8=2,9=2,10=2,18=1,28=1/1;
 7/8=1,10=1,25=1,30=1/1,2,3,16;
 1/10=4,30=1/3;
 99/10=4/99;
 Leave Link    1 at Wed Aug 23 17:03:41 2017, MaxMem=           0 cpu:         0.5
 (Enter /sw/chem/g09/l101.exe)
 ------
 CrSite
 ------
 Symbolic Z-matrix:
 Charge =  0 Multiplicity = 5
 Cr                   -0.09547   2.71699   3.39567 
 O                     0.90334   2.77146   1.88225 
 O                    -1.83253   2.76747   2.87523 
 O                    -1.14748   3.82366   0.50291 
 Si                   -2.37186   3.50967   1.54169 
 Si                    0.4525    3.4804    0.49922 
 C                     0.30341   4.34544   4.44741 
 C                     0.01469   5.64535   3.70748 
 H                     1.36744   4.25526   4.71007 
 H                    -0.29107   4.26131   5.36869 
 C                     0.38932   6.89109   4.52265 
 H                     0.57243   5.66788   2.76645 
 H                    -1.0455    5.69652   3.44948 
 C                     1.84558   7.00799   4.78786 
 H                     0.03902   7.77568   3.96869 
 H                    -0.16945   6.89614   5.46425 
 H                     2.21708   7.56021   5.64066 
 H                     2.56175   6.68588   4.04075 
 F(Iso=100000000)     -3.09089   4.91474   1.90855 
 F(Iso=100000000)     -3.49475   2.624     0.78874 
 F(Iso=100000000)      0.78282   2.53808  -0.77104 
 F(Iso=100000000)      1.26734   4.85953   0.25203 
 
 NAtoms=     22 NQM=       22 NQMF=       0 NMMI=      0 NMMIF=      0
                NMic=       0 NMicF=      0.
                    Isotopes and Nuclear Properties:
 (Nuclear quadrupole moments (NQMom) in fm**2, nuclear magnetic moments (NMagM)
  in nuclear magnetons)

  Atom         1           2           3           4           5           6           7           8           9          10
 IAtWgt=          52          16          16          16          28          28          12          12           1           1
 AtmWgt=  51.9405097  15.9949146  15.9949146  15.9949146  27.9769284  27.9769284  12.0000000  12.0000000   1.0078250   1.0078250
 NucSpn=           0           0           0           0           0           0           0           0           1           1
 AtZEff=   0.0000000   0.0000000   0.0000000   0.0000000   0.0000000   0.0000000   0.0000000   0.0000000   0.0000000   0.0000000
 NQMom=    0.0000000   0.0000000   0.0000000   0.0000000   0.0000000   0.0000000   0.0000000   0.0000000   0.0000000   0.0000000
 NMagM=    0.0000000   0.0000000   0.0000000   0.0000000   0.0000000   0.0000000   0.0000000   0.0000000   2.7928460   2.7928460
 AtZNuc=  24.0000000   8.0000000   8.0000000   8.0000000  14.0000000  14.0000000   6.0000000   6.0000000   1.0000000   1.0000000

  Atom        11          12          13          14          15          16          17          18          19          20
 IAtWgt=          12           1           1          12           1           1           1           1   100000000   100000000
 AtmWgt=  12.0000000   1.0078250   1.0078250  12.0000000   1.0078250   1.0078250   1.0078250   1.0078250************************
 NucSpn=           0           1           1           0           1           1           1           1           0           0
 AtZEff=   0.0000000   0.0000000   0.0000000   0.0000000   0.0000000   0.0000000   0.0000000   0.0000000   0.0000000   0.0000000
 NQMom=    0.0000000   0.0000000   0.0000000   0.0000000   0.0000000   0.0000000   0.0000000   0.0000000   0.0000000   0.0000000
 NMagM=    0.0000000   2.7928460   2.7928460   0.0000000   2.7928460   2.7928460   2.7928460   2.7928460   0.0000000   0.0000000
 AtZNuc=   6.0000000   1.0000000   1.0000000   6.0000000   1.0000000   1.0000000   1.0000000   1.0000000   9.0000000   9.0000000

  Atom        21          22
 IAtWgt=   100000000   100000000
 AtmWgt=************************
 NucSpn=           0           0
 AtZEff=   0.0000000   0.0000000
 NQMom=    0.0000000   0.0000000
 NMagM=    0.0000000   0.0000000
 AtZNuc=   9.0000000   9.0000000
 Leave Link  101 at Wed Aug 23 17:03:41 2017, MaxMem=    33554432 cpu:         0.9
 (Enter /sw/chem/g09/l103.exe)

 GradGradGradGradGradGradGradGradGradGradGradGradGradGradGradGradGradGrad
 Berny optimization.
 Initialization pass.
 Trust Radius=3.00D-01 FncErr=1.00D-07 GrdErr=1.00D-07
 Number of steps in this run=      2 maximum allowed number of steps=      2.
 GradGradGradGradGradGradGradGradGradGradGradGradGradGradGradGradGradGrad

 Leave Link  103 at Wed Aug 23 17:03:41 2017, MaxMem=    33554432 cpu:         0.2
 (Enter /sw/chem/g09/l202.exe)
                          Input orientation:                          
 ---------------------------------------------------------------------
 Center     Atomic      Atomic             Coordinates (Angstroms)
 Number     Number       Type             X           Y           Z
 ---------------------------------------------------------------------
      1         24           0       -0.095472    2.716987    3.395667
      2          8           0        0.903341    2.771463    1.882251
      3          8           0       -1.832528    2.767467    2.875230
      4          8           0       -1.147483    3.823658    0.502908
      5         14           0       -2.371855    3.509670    1.541693
      6         14           0        0.452501    3.480397    0.499218
      7          6           0        0.303414    4.345444    4.447414
      8          6           0        0.014688    5.645347    3.707483
      9          1           0        1.367439    4.255264    4.710071
     10          1           0       -0.291067    4.261305    5.368692
     11          6           0        0.389316    6.891094    4.522651
     12          1           0        0.572429    5.667879    2.766446
     13          1           0       -1.045500    5.696520    3.449478
     14          6           0        1.845579    7.007992    4.787856
     15          1           0        0.039020    7.775676    3.968687
     16          1           0       -0.169451    6.896138    5.464254
     17          1           0        2.217084    7.560210    5.640662
     18          1           0        2.561751    6.685877    4.040751
     19          9           0       -3.090888    4.914737    1.908546
     20          9           0       -3.494745    2.623997    0.788738
     21          9           0        0.782815    2.538077   -0.771037
     22          9           0        1.267339    4.859529    0.252034
 ---------------------------------------------------------------------
                    Distance matrix (angstroms):
                    1          2          3          4          5
     1  Cr   0.000000
     2  O    1.814118   0.000000
     3  O    1.814047   2.910499   0.000000
     4  O    3.271009   2.686183   2.685654   0.000000
     5  Si   3.040968   3.374587   1.618660   1.636077   0.000000
     6  Si   3.045076   1.618216   3.372693   1.636396   3.010747
     7  C    1.979180   3.068777   3.086101   4.235149   4.037177
     8  C    2.946974   3.518577   3.519523   3.865035   3.866180
     9  H    2.496810   3.227014   3.977433   4.920502   4.957504
    10  H    2.513166   3.975111   3.290138   4.959923   4.420470
    11  C    4.350664   4.920091   4.965369   5.284813   5.286228
    12  H    3.090271   3.046396   3.769356   3.388636   3.850545
    13  H    3.127789   3.848394   3.086831   3.492891   3.190795
    14  C    4.911068   5.222885   5.930317   6.120391   6.368876
    15  H    5.092816   5.490211   5.457151   5.388679   5.468220
    16  H    4.663671   5.567277   5.149252   5.917063   5.630740
    17  H    5.817622   6.227654   6.856920   7.188786   7.366599
    18  H    4.819653   4.767817   6.001838   5.870864   6.377621
    19  F    4.001768   4.533010   2.669966   2.634975   1.620433
    20  F    4.284832   4.534388   2.671516   2.651514   1.616243
    21  F    4.262021   2.666258   4.493095   2.646073   4.030466
    22  F    4.041060   2.673971   4.568047   2.639570   4.090119
                    6          7          8          9         10
     6  Si   0.000000
     7  C    4.044599   0.000000
     8  C    3.895081   1.523354   0.000000
     9  H    4.378220   1.099668   2.183449   0.000000
    10  H    4.987433   1.099655   2.183729   1.784506   0.000000
    11  C    5.274927   2.548210   1.535165   2.817703   2.845083
    12  H    3.152742   2.155657   1.094136   2.530850   3.081519
    13  H    3.982366   2.154264   1.092330   3.080355   2.512448
    14  C    5.725121   3.095696   2.525108   2.795028   3.528019
    15  H    5.536931   3.473554   2.146421   3.835055   3.797338
    16  H    6.058522   2.786325   2.164401   3.147227   2.639369
    17  H    6.796549   3.926919   3.500633   3.537028   4.153019
    18  H    5.221733   3.277665   2.771516   2.789668   3.972474
    19  F    4.074204   4.276825   3.662590   5.306612   4.498731
    20  F    4.049444   5.547549   5.473915   6.455906   5.824114
    21  F    1.615742   5.543341   5.504751   5.773479   6.466762
    22  F    1.620823   4.335279   3.758560   4.499917   5.382071
                   11         12         13         14         15
    11  C    0.000000
    12  H    2.148032   0.000000
    13  H    2.153463   1.756430   0.000000
    14  C    1.484823   2.739144   3.445222   0.000000
    15  H    1.100940   2.484495   2.401802   2.126977   0.000000
    16  H    1.094926   3.055679   2.503171   2.128467   1.747503
    17  H    2.244638   3.814043   4.349607   1.081776   2.754249
    18  H    2.234685   2.572465   3.786910   1.083894   2.749005
    19  F    4.780309   3.837070   2.677549   6.086119   4.714390
    20  F    6.872856   5.451463   4.745391   7.983196   7.009948
    21  F    6.864891   4.727971   5.579538   7.211858   7.102863
    22  F    4.810026   2.731043   4.034034   5.052122   4.881208
                   16         17         18         19         20
    16  H    0.000000
    17  H    2.483478   0.000000
    18  H    3.087075   1.855524   0.000000
    19  F    5.010370   7.007267   6.295678   0.000000
    20  F    7.153266   8.973982   7.984710   2.581581   0.000000
    21  F    7.666705   8.269754   6.597133   5.275818   4.553877
    22  F    5.777489   6.101885   4.400617   4.662748   5.288015
                   21         22
    21  F    0.000000
    22  F    2.582746   0.000000
 Symmetry turned off by external request.
 Stoichiometry    C4H8CrF4O3Si2(5)
 Framework group  C1[X(C4H8CrF4O3Si2)]
 Deg. of freedom    60
 Full point group                 C1      NOp   1
 Rotational constants (GHZ):      0.0000008      0.0000002      0.0000002
 Leave Link  202 at Wed Aug 23 17:03:41 2017, MaxMem=    33554432 cpu:         0.1
 (Enter /sw/chem/g09/l301.exe)
 General basis read from cards:  (5D, 7F)
 Centers:       1
 def2TZVP
 ****
 Centers:       9     10     12     13     15     16     17     18      7      8
 Centers:      11     14      2      3      4      5      6
 TZVP
 ****
 Centers:      19     20     21     22
 6-31G
 ****
 Ernie: Thresh=  0.10000D-02 Tol=  0.10000D-05 Strict=F.
   306 basis functions,   593 primitive gaussians,   322 cartesian basis functions
    74 alpha electrons       70 beta electrons
       nuclear repulsion energy      1624.5326082897 Hartrees.
 IExCor= 4639 DFT=T Ex+Corr=wB97XD ExCW=0 ScaHFX=  1.000000
 ScaDFX=  1.000000  1.000000  1.000000  1.000000 ScalE2=  1.000000  1.000000
 IRadAn=      0 IRanWt=     -1 IRanGd=            0 ICorTp=0 IEmpDi=121
  HFx wShort=  0.000000 wLong=  0.200000 cFull=  0.222036 cShort=  0.000000 cLong=  0.777964
  DFx wShort=  0.000000 wLong=  0.200000 cFull=  0.000000 cShort=  0.000000 cLong=  1.000000
 NAtoms=   22 NActive=   22 NUniq=   22 SFac= 1.00D+00 NAtFMM=   60 NAOKFM=F Big=F
 Integral buffers will be    131072 words long.
 Raffenetti 2 integral format.
 Two-electron integral symmetry is turned off.
 R6Disp:  Grimme-D2 Dispersion energy=       -0.0170566298 Hartrees.
 Nuclear repulsion after empirical dispersion term =     1624.5155516599 Hartrees.
 Leave Link  301 at Wed Aug 23 17:03:41 2017, MaxMem=    33554432 cpu:         0.6
 (Enter /sw/chem/g09/l302.exe)
 NPDir=0 NMtPBC=     1 NCelOv=     1 NCel=       1 NClECP=     1 NCelD=      1
         NCelK=      1 NCelE2=     1 NClLst=     1 CellRange=     0.0.
 One-electron integrals computed using PRISM.
 PrsmSu:  requested number of processors reduced to:   4 ShMem   1 Linda.
 NBasis=   306 RedAO= T EigKep=  2.33D-04  NBF=   306
 NBsUse=   306 1.00D-06 EigRej= -1.00D+00 NBFU=   306
 Precomputing XC quadrature grid using
 IXCGrd= 4 IRadAn=           0 IRanWt=          -1 IRanGd=           0 AccXCQ= 0.00D+00.
 Generated NRdTot=       0 NPtTot=           0 NUsed=           0 NTot=          32
 NSgBfM=   317   317   317   317   317 MxSgAt=    22 MxSgA2=    22.
 Leave Link  302 at Wed Aug 23 17:03:41 2017, MaxMem=    33554432 cpu:         4.2
 (Enter /sw/chem/g09/l303.exe)
 DipDrv:  MaxL=1.
 Leave Link  303 at Wed Aug 23 17:03:42 2017, MaxMem=    33554432 cpu:         0.6
 (Enter /sw/chem/g09/l401.exe)
 ExpMin= 3.41D-02 ExpMax= 2.54D+05 ExpMxC= 2.46D+03 IAcc=3 IRadAn=         5 AccDes= 0.00D+00
 Harris functional with IExCor= 4639 and IRadAn=       5 diagonalized for initial guess.
 HarFok:  IExCor= 4639 AccDes= 0.00D+00 IRadAn=         5 IDoV= 1 UseB2=F ITyADJ=14
 ICtDFT=  3500011 ScaDFX=  1.000000  1.000000  1.000000  1.000000
 FoFCou: FMM=F IPFlag=           0 FMFlag=      100000 FMFlg1=           0
         NFxFlg=           0 DoJE=T BraDBF=F KetDBF=T FulRan=T
         wScrn=  0.000000 ICntrl=     500 IOpCl=  0 I1Cent=   200000004 NGrid=           0
         NMat0=    1 NMatS0=      1 NMatT0=    0 NMatD0=    1 NMtDS0=    0 NMtDT0=    0
 Symmetry not used in FoFCou.
 Harris En= -2355.28846127633    
 JPrj=0 DoOrth=F DoCkMO=F.
 Initial guess <Sx>= 0.0000 <Sy>= 0.0000 <Sz>= 2.0000 <S**2>= 6.0000 S= 2.0000
 Leave Link  401 at Wed Aug 23 17:03:43 2017, MaxMem=    33554432 cpu:        21.6
 (Enter /sw/chem/g09/l502.exe)
 UHF open shell SCF:
 Using DIIS extrapolation, IDIIS=  1040.
 Two-electron integral symmetry not used.
 IVT=      335442 IEndB=      335442 NGot=    33554432 MDV=    33339637
 LenX=    33339637 LenY=    33235512
 Requested convergence on RMS density matrix=1.00D-08 within 128 cycles.
 Requested convergence on MAX density matrix=1.00D-06.
 Requested convergence on             energy=1.00D-06.
 No special actions if energy rises.
 Fock matrices will be formed incrementally for  20 cycles.

 Cycle   1  Pass 1  IDiag  1:
 FoFJK:  IHMeth= 1 ICntrl=       0 DoSepK=T KAlg= 0 I1Cent=   0 FoldK=F
 IRaf=         1 NMat=   1 IRICut=       1 DoRegI=T DoRafI=F ISym2E= 0.
 FoFCou: FMM=F IPFlag=           0 FMFlag=      100000 FMFlg1=           0
         NFxFlg=           0 DoJE=T BraDBF=F KetDBF=F FulRan=T
         wScrn=  0.000000 ICntrl=     500 IOpCl=  0 I1Cent=           0 NGrid=           0
         NMat0=    1 NMatS0=      1 NMatT0=    0 NMatD0=    1 NMtDS0=    0 NMtDT0=    0
 Symmetry not used in FoFCou.
 E= -2401.32722808405    
 DIIS: error= 1.07D-01 at cycle   1 NSaved=   1.
 NSaved= 1 IEnMin= 1 EnMin= -2401.32722808405     IErMin= 1 ErrMin= 1.07D-01
 ErrMax= 1.07D-01  0.00D+00 EMaxC= 1.00D-01 BMatC= 2.16D+01 BMatP= 2.16D+01
 IDIUse=3 WtCom= 0.00D+00 WtEn= 1.00D+00
 Coeff-Com:  0.100D+01
 Coeff-En:   0.100D+01
 Coeff:      0.100D+01
 Gap=    -0.052 Goal=   None    Shift=    0.000
 Gap=     0.696 Goal=   None    Shift=    0.000
 GapD=   -0.052 DampG=0.250 DampE=0.125 DampFc=0.1250 IDamp=-1.
 Damping current iteration by 1.25D-01
 RMSDP=3.98D-02 MaxDP=4.95D+00              OVMax= 9.73D-01

 Cycle   2  Pass 1  IDiag  1:
 RMSU=  3.87D-03    CP:  9.17D-01
 E= -2403.00925222923     Delta-E=       -1.682024145172 Rises=F Damp=T
 DIIS: error= 6.32D-02 at cycle   2 NSaved=   2.
 NSaved= 2 IEnMin= 2 EnMin= -2403.00925222923     IErMin= 2 ErrMin= 6.32D-02
 ErrMax= 6.32D-02  0.00D+00 EMaxC= 1.00D-01 BMatC= 8.60D+00 BMatP= 2.16D+01
 IDIUse=3 WtCom= 3.68D-01 WtEn= 6.32D-01
 Coeff-Com: -0.104D+01 0.204D+01
 Coeff-En:   0.000D+00 0.100D+01
 Coeff:     -0.384D+00 0.138D+01
 Gap=     0.063 Goal=   None    Shift=    0.000
 Gap=    -0.172 Goal=   None    Shift=    0.000
 RMSDP=2.76D-02 MaxDP=4.47D+00 DE=-1.68D+00 OVMax= 8.98D-01

 Cycle   3  Pass 1  IDiag  1:
 RMSU=  1.34D-02    CP:  3.14D-01  3.00D+00
 E= -2394.35863514582     Delta-E=        8.650617083407 Rises=F Damp=F
 DIIS: error= 3.48D-01 at cycle   3 NSaved=   3.
 NSaved= 3 IEnMin= 2 EnMin= -2403.00925222923     IErMin= 2 ErrMin= 6.32D-02
 ErrMax= 3.48D-01  0.00D+00 EMaxC= 1.00D-01 BMatC= 8.05D+01 BMatP= 8.60D+00
 IDIUse=2 WtCom= 0.00D+00 WtEn= 1.00D+00
 EnCoef did   100 forward-backward iterations
 Coeff-En:   0.639D+00 0.148D-01 0.346D+00
 Coeff:      0.639D+00 0.148D-01 0.346D+00
 Gap=     0.161 Goal=   None    Shift=    0.000
 Gap=    -0.035 Goal=   None    Shift=    0.000
 RMSDP=5.62D-03 MaxDP=2.57D-01 DE= 8.65D+00 OVMax= 6.23D-01

 Cycle   4  Pass 1  IDiag  1:
 RMSU=  5.50D-03    CP:  3.08D-01  2.87D+00  9.68D-01
 E= -2396.92803435280     Delta-E=       -2.569399206976 Rises=F Damp=F
 DIIS: error= 1.71D-01 at cycle   4 NSaved=   4.
 NSaved= 4 IEnMin= 2 EnMin= -2403.00925222923     IErMin= 2 ErrMin= 6.32D-02
 ErrMax= 1.71D-01  0.00D+00 EMaxC= 1.00D-01 BMatC= 4.13D+01 BMatP= 8.60D+00
 IDIUse=2 WtCom= 0.00D+00 WtEn= 1.00D+00
 EnCoef did   100 forward-backward iterations
 Coeff-En:   0.594D+00 0.988D-02 0.178D+00 0.218D+00
 Coeff:      0.594D+00 0.988D-02 0.178D+00 0.218D+00
 Gap=     0.075 Goal=   None    Shift=    0.000
 Gap=    -0.144 Goal=   None    Shift=    0.000
 RMSDP=4.75D-03 MaxDP=4.00D-01 DE=-2.57D+00 OVMax= 9.89D-01

 Cycle   5  Pass 1  IDiag  1:
 RMSU=  3.75D-03    CP:  3.18D-01  2.65D+00  9.90D-01  5.00D-01
 E= -2405.90904997825     Delta-E=       -8.981015625453 Rises=F Damp=F
 DIIS: error= 1.50D-02 at cycle   5 NSaved=   5.
 NSaved= 5 IEnMin= 5 EnMin= -2405.90904997825     IErMin= 5 ErrMin= 1.50D-02
 ErrMax= 1.50D-02  0.00D+00 EMaxC= 1.00D-01 BMatC= 6.16D-01 BMatP= 8.60D+00
 IDIUse=3 WtCom= 8.50D-01 WtEn= 1.50D-01
 Coeff-Com: -0.162D+00 0.357D+00-0.385D-01 0.371D-02 0.840D+00
 Coeff-En:   0.000D+00 0.000D+00 0.000D+00 0.000D+00 0.100D+01
 Coeff:     -0.137D+00 0.303D+00-0.327D-01 0.316D-02 0.864D+00
 Gap=     0.296 Goal=   None    Shift=    0.000
 Gap=     0.383 Goal=   None    Shift=    0.000
 RMSDP=1.47D-03 MaxDP=5.99D-02 DE=-8.98D+00 OVMax= 1.12D-01

 Cycle   6  Pass 1  IDiag  1:
 RMSU=  1.43D-03    CP:  3.17D-01  2.61D+00  9.80D-01  5.35D-01  1.03D+00
 E= -2406.01291607336     Delta-E=       -0.103866095114 Rises=F Damp=F
 DIIS: error= 7.44D-03 at cycle   6 NSaved=   6.
 NSaved= 6 IEnMin= 6 EnMin= -2406.01291607336     IErMin= 6 ErrMin= 7.44D-03
 ErrMax= 7.44D-03  0.00D+00 EMaxC= 1.00D-01 BMatC= 1.23D-01 BMatP= 6.16D-01
 IDIUse=3 WtCom= 9.26D-01 WtEn= 7.44D-02
 Coeff-Com: -0.621D-01 0.105D+00-0.144D-01 0.925D-02 0.331D+00 0.632D+00
 Coeff-En:   0.000D+00 0.000D+00 0.000D+00 0.000D+00 0.000D+00 0.100D+01
 Coeff:     -0.575D-01 0.969D-01-0.133D-01 0.856D-02 0.306D+00 0.659D+00
 Gap=     0.262 Goal=   None    Shift=    0.000
 Gap=     0.343 Goal=   None    Shift=    0.000
 RMSDP=7.04D-04 MaxDP=5.03D-02 DE=-1.04D-01 OVMax= 4.31D-02

 Cycle   7  Pass 1  IDiag  1:
 RMSU=  6.56D-04    CP:  3.13D-01  2.63D+00  9.80D-01  5.54D-01  1.00D+00
                    CP:  9.28D-01
 E= -2406.03559217158     Delta-E=       -0.022676098217 Rises=F Damp=F
 DIIS: error= 2.68D-03 at cycle   7 NSaved=   7.
 NSaved= 7 IEnMin= 7 EnMin= -2406.03559217158     IErMin= 7 ErrMin= 2.68D-03
 ErrMax= 2.68D-03  0.00D+00 EMaxC= 1.00D-01 BMatC= 1.51D-02 BMatP= 1.23D-01
 IDIUse=3 WtCom= 9.73D-01 WtEn= 2.68D-02
 Coeff-Com: -0.282D-01 0.359D-01 0.483D-03 0.418D-02 0.246D-01 0.239D+00
 Coeff-Com:  0.724D+00
 Coeff-En:   0.000D+00 0.000D+00 0.000D+00 0.000D+00 0.000D+00 0.000D+00
 Coeff-En:   0.100D+01
 Coeff:     -0.274D-01 0.350D-01 0.470D-03 0.407D-02 0.239D-01 0.233D+00
 Coeff:      0.731D+00
 Gap=     0.251 Goal=   None    Shift=    0.000
 Gap=     0.343 Goal=   None    Shift=    0.000
 RMSDP=2.79D-04 MaxDP=1.73D-02 DE=-2.27D-02 OVMax= 2.34D-02

 Cycle   8  Pass 1  IDiag  1:
 RMSU=  2.12D-04    CP:  3.13D-01  2.65D+00  9.78D-01  5.60D-01  9.87D-01
                    CP:  1.02D+00  1.13D+00
 E= -2406.03971484718     Delta-E=       -0.004122675602 Rises=F Damp=F
 DIIS: error= 1.98D-03 at cycle   8 NSaved=   8.
 NSaved= 8 IEnMin= 8 EnMin= -2406.03971484718     IErMin= 8 ErrMin= 1.98D-03
 ErrMax= 1.98D-03  0.00D+00 EMaxC= 1.00D-01 BMatC= 3.78D-03 BMatP= 1.51D-02
 IDIUse=3 WtCom= 9.80D-01 WtEn= 1.98D-02
 Coeff-Com: -0.136D-01 0.169D-01 0.274D-02 0.640D-03-0.238D-01-0.775D-01
 Coeff-Com: -0.498D-04 0.109D+01
 Coeff-En:   0.000D+00 0.000D+00 0.000D+00 0.000D+00 0.000D+00 0.000D+00
 Coeff-En:   0.000D+00 0.100D+01
 Coeff:     -0.134D-01 0.165D-01 0.269D-02 0.628D-03-0.233D-01-0.760D-01
 Coeff:     -0.488D-04 0.109D+01
 Gap=     0.249 Goal=   None    Shift=    0.000
 Gap=     0.341 Goal=   None    Shift=    0.000
 RMSDP=1.92D-04 MaxDP=1.12D-02 DE=-4.12D-03 OVMax= 2.49D-02

 Cycle   9  Pass 1  IDiag  1:
 RMSU=  9.01D-05    CP:  3.13D-01  2.66D+00  9.76D-01  5.60D-01  9.76D-01
                    CP:  1.07D+00  1.31D+00  1.33D+00
 E= -2406.04160586473     Delta-E=       -0.001891017549 Rises=F Damp=F
 DIIS: error= 8.15D-04 at cycle   9 NSaved=   9.
 NSaved= 9 IEnMin= 9 EnMin= -2406.04160586473     IErMin= 9 ErrMin= 8.15D-04
 ErrMax= 8.15D-04  0.00D+00 EMaxC= 1.00D-01 BMatC= 7.09D-04 BMatP= 3.78D-03
 IDIUse=3 WtCom= 9.92D-01 WtEn= 8.15D-03
 Coeff-Com: -0.572D-03 0.101D-02 0.270D-03 0.838D-03-0.748D-02-0.694D-01
 Coeff-Com: -0.165D+00 0.332D+00 0.908D+00
 Coeff-En:   0.000D+00 0.000D+00 0.000D+00 0.000D+00 0.000D+00 0.000D+00
 Coeff-En:   0.000D+00 0.000D+00 0.100D+01
 Coeff:     -0.567D-03 0.100D-02 0.268D-03 0.831D-03-0.742D-02-0.688D-01
 Coeff:     -0.163D+00 0.330D+00 0.908D+00
 Gap=     0.249 Goal=   None    Shift=    0.000
 Gap=     0.340 Goal=   None    Shift=    0.000
 RMSDP=1.00D-04 MaxDP=5.97D-03 DE=-1.89D-03 OVMax= 1.96D-02

 Cycle  10  Pass 1  IDiag  1:
 RMSU=  4.50D-05    CP:  3.13D-01  2.66D+00  9.75D-01  5.61D-01  9.70D-01
                    CP:  1.09D+00  1.37D+00  1.58D+00  1.49D+00
 E= -2406.04220887672     Delta-E=       -0.000603011988 Rises=F Damp=F
 DIIS: error= 4.49D-04 at cycle  10 NSaved=  10.
 NSaved=10 IEnMin=10 EnMin= -2406.04220887672     IErMin=10 ErrMin= 4.49D-04
 ErrMax= 4.49D-04  0.00D+00 EMaxC= 1.00D-01 BMatC= 2.75D-04 BMatP= 7.09D-04
 IDIUse=3 WtCom= 9.96D-01 WtEn= 4.49D-03
 Coeff-Com:  0.227D-02-0.255D-02-0.434D-03 0.118D-03-0.345D-03-0.139D-01
 Coeff-Com: -0.518D-01-0.166D-01 0.384D+00 0.699D+00
 Coeff-En:   0.000D+00 0.000D+00 0.000D+00 0.000D+00 0.000D+00 0.000D+00
 Coeff-En:   0.000D+00 0.000D+00 0.000D+00 0.100D+01
 Coeff:      0.226D-02-0.254D-02-0.432D-03 0.118D-03-0.344D-03-0.138D-01
 Coeff:     -0.516D-01-0.165D-01 0.382D+00 0.701D+00
 Gap=     0.248 Goal=   None    Shift=    0.000
 Gap=     0.341 Goal=   None    Shift=    0.000
 RMSDP=4.14D-05 MaxDP=2.31D-03 DE=-6.03D-04 OVMax= 9.81D-03

 Cycle  11  Pass 1  IDiag  1:
 RMSU=  2.27D-05    CP:  3.13D-01  2.66D+00  9.75D-01  5.62D-01  9.69D-01
                    CP:  1.09D+00  1.38D+00  1.65D+00  1.78D+00  1.31D+00
 E= -2406.04239693354     Delta-E=       -0.000188056818 Rises=F Damp=F
 DIIS: error= 4.12D-04 at cycle  11 NSaved=  11.
 NSaved=11 IEnMin=11 EnMin= -2406.04239693354     IErMin=11 ErrMin= 4.12D-04
 ErrMax= 4.12D-04  0.00D+00 EMaxC= 1.00D-01 BMatC= 1.92D-04 BMatP= 2.75D-04
 IDIUse=3 WtCom= 9.96D-01 WtEn= 4.12D-03
 Coeff-Com:  0.269D-02-0.339D-02-0.229D-03-0.473D-03-0.270D-02 0.684D-02
 Coeff-Com:  0.317D-01-0.845D-02-0.106D+00 0.766D-01 0.100D+01
 Coeff-En:   0.000D+00 0.000D+00 0.000D+00 0.000D+00 0.000D+00 0.000D+00
 Coeff-En:   0.000D+00 0.000D+00 0.000D+00 0.000D+00 0.100D+01
 Coeff:      0.268D-02-0.338D-02-0.229D-03-0.471D-03-0.268D-02 0.681D-02
 Coeff:      0.316D-01-0.841D-02-0.105D+00 0.763D-01 0.100D+01
 Gap=     0.249 Goal=   None    Shift=    0.000
 Gap=     0.341 Goal=   None    Shift=    0.000
 RMSDP=3.74D-05 MaxDP=1.86D-03 DE=-1.88D-04 OVMax= 9.13D-03

 Cycle  12  Pass 1  IDiag  1:
 RMSU=  1.24D-05    CP:  3.13D-01  2.66D+00  9.75D-01  5.62D-01  9.69D-01
                    CP:  1.09D+00  1.38D+00  1.67D+00  2.01D+00  1.81D+00
                    CP:  1.67D+00
 E= -2406.04253527477     Delta-E=       -0.000138341235 Rises=F Damp=F
 DIIS: error= 3.63D-04 at cycle  12 NSaved=  12.
 NSaved=12 IEnMin=12 EnMin= -2406.04253527477     IErMin=12 ErrMin= 3.63D-04
 ErrMax= 3.63D-04  0.00D+00 EMaxC= 1.00D-01 BMatC= 1.43D-04 BMatP= 1.92D-04
 IDIUse=3 WtCom= 9.96D-01 WtEn= 3.63D-03
 Coeff-Com:  0.217D-02-0.300D-02 0.837D-05-0.378D-03-0.534D-02 0.555D-02
 Coeff-Com:  0.496D-01 0.895D-01-0.261D+00-0.569D+00 0.331D+00 0.136D+01
 Coeff-En:   0.000D+00 0.000D+00 0.000D+00 0.000D+00 0.000D+00 0.000D+00
 Coeff-En:   0.000D+00 0.000D+00 0.000D+00 0.000D+00 0.000D+00 0.100D+01
 Coeff:      0.216D-02-0.298D-02 0.834D-05-0.377D-03-0.532D-02 0.553D-02
 Coeff:      0.494D-01 0.892D-01-0.260D+00-0.567D+00 0.330D+00 0.136D+01
 Gap=     0.251 Goal=   None    Shift=    0.000
 Gap=     0.343 Goal=   None    Shift=    0.000
 RMSDP=5.50D-05 MaxDP=2.49D-03 DE=-1.38D-04 OVMax= 1.23D-02

 Cycle  13  Pass 1  IDiag  1:
 RMSU=  1.49D-05    CP:  3.13D-01  2.66D+00  9.76D-01  5.62D-01  9.69D-01
                    CP:  1.10D+00  1.38D+00  1.69D+00  2.33D+00  2.53D+00
                    CP:  2.77D+00  2.09D+00
 E= -2406.04268366077     Delta-E=       -0.000148386002 Rises=F Damp=F
 DIIS: error= 1.88D-04 at cycle  13 NSaved=  13.
 NSaved=13 IEnMin=13 EnMin= -2406.04268366077     IErMin=13 ErrMin= 1.88D-04
 ErrMax= 1.88D-04  0.00D+00 EMaxC= 1.00D-01 BMatC= 4.05D-05 BMatP= 1.43D-04
 IDIUse=3 WtCom= 9.98D-01 WtEn= 1.88D-03
 Coeff-Com:  0.228D-03-0.335D-03 0.163D-04-0.800D-04-0.116D-02-0.255D-02
 Coeff-Com: -0.377D-02 0.530D-01-0.114D-01-0.270D+00-0.533D+00 0.510D+00
 Coeff-Com:  0.126D+01
 Coeff-En:   0.000D+00 0.000D+00 0.000D+00 0.000D+00 0.000D+00 0.000D+00
 Coeff-En:   0.000D+00 0.000D+00 0.000D+00 0.000D+00 0.000D+00 0.000D+00
 Coeff-En:   0.100D+01
 Coeff:      0.228D-03-0.334D-03 0.163D-04-0.799D-04-0.116D-02-0.255D-02
 Coeff:     -0.376D-02 0.529D-01-0.114D-01-0.269D+00-0.532D+00 0.509D+00
 Coeff:      0.126D+01
 Gap=     0.252 Goal=   None    Shift=    0.000
 Gap=     0.344 Goal=   None    Shift=    0.000
 RMSDP=5.08D-05 MaxDP=2.30D-03 DE=-1.48D-04 OVMax= 1.09D-02

 Cycle  14  Pass 1  IDiag  1:
 RMSU=  2.09D-05    CP:  3.13D-01  2.66D+00  9.76D-01  5.62D-01  9.69D-01
                    CP:  1.10D+00  1.38D+00  1.72D+00  2.62D+00  3.00D+00
                    CP:  3.00D+00  3.00D+00  1.88D+00
 E= -2406.04274848439     Delta-E=       -0.000064823619 Rises=F Damp=F
 DIIS: error= 4.65D-05 at cycle  14 NSaved=  14.
 NSaved=14 IEnMin=14 EnMin= -2406.04274848439     IErMin=14 ErrMin= 4.65D-05
 ErrMax= 4.65D-05  0.00D+00 EMaxC= 1.00D-01 BMatC= 4.96D-06 BMatP= 4.05D-05
 IDIUse=1 WtCom= 1.00D+00 WtEn= 0.00D+00
 Coeff-Com: -0.180D-03 0.222D-03 0.958D-05-0.133D-04 0.356D-03-0.494D-03
 Coeff-Com: -0.747D-02-0.607D-02 0.208D-01 0.543D-02-0.199D+00-0.624D-01
 Coeff-Com:  0.467D+00 0.782D+00
 Coeff:     -0.180D-03 0.222D-03 0.958D-05-0.133D-04 0.356D-03-0.494D-03
 Coeff:     -0.747D-02-0.607D-02 0.208D-01 0.543D-02-0.199D+00-0.624D-01
 Coeff:      0.467D+00 0.782D+00
 Gap=     0.252 Goal=   None    Shift=    0.000
 Gap=     0.344 Goal=   None    Shift=    0.000
 RMSDP=1.21D-05 MaxDP=6.12D-04 DE=-6.48D-05 OVMax= 2.53D-03

 Cycle  15  Pass 1  IDiag  1:
 RMSU=  5.24D-06    CP:  3.13D-01  2.66D+00  9.76D-01  5.62D-01  9.69D-01
                    CP:  1.10D+00  1.38D+00  1.73D+00  2.68D+00  3.00D+00
                    CP:  3.00D+00  3.00D+00  2.16D+00  1.34D+00
 E= -2406.04275384389     Delta-E=       -0.000005359496 Rises=F Damp=F
 DIIS: error= 3.60D-05 at cycle  15 NSaved=  15.
 NSaved=15 IEnMin=15 EnMin= -2406.04275384389     IErMin=15 ErrMin= 3.60D-05
 ErrMax= 3.60D-05  0.00D+00 EMaxC= 1.00D-01 BMatC= 1.79D-06 BMatP= 4.96D-06
 IDIUse=1 WtCom= 1.00D+00 WtEn= 0.00D+00
 Coeff-Com: -0.142D-03 0.176D-03-0.302D-05 0.354D-04 0.422D-03 0.962D-03
 Coeff-Com: -0.357D-03-0.164D-01-0.834D-03 0.503D-01 0.511D-01-0.108D+00
 Coeff-Com: -0.785D-01 0.292D+00 0.809D+00
 Coeff:     -0.142D-03 0.176D-03-0.302D-05 0.354D-04 0.422D-03 0.962D-03
 Coeff:     -0.357D-03-0.164D-01-0.834D-03 0.503D-01 0.511D-01-0.108D+00
 Coeff:     -0.785D-01 0.292D+00 0.809D+00
 Gap=     0.252 Goal=   None    Shift=    0.000
 Gap=     0.344 Goal=   None    Shift=    0.000
 RMSDP=4.43D-06 MaxDP=2.97D-04 DE=-5.36D-06 OVMax= 8.91D-04

 Cycle  16  Pass 1  IDiag  1:
 RMSU=  2.52D-06    CP:  3.13D-01  2.66D+00  9.76D-01  5.62D-01  9.69D-01
                    CP:  1.10D+00  1.38D+00  1.74D+00  2.69D+00  3.00D+00
                    CP:  3.00D+00  3.00D+00  2.28D+00  1.43D+00  1.28D+00
 E= -2406.04275520807     Delta-E=       -0.000001364184 Rises=F Damp=F
 DIIS: error= 3.29D-05 at cycle  16 NSaved=  16.
 NSaved=16 IEnMin=16 EnMin= -2406.04275520807     IErMin=16 ErrMin= 3.29D-05
 ErrMax= 3.29D-05  0.00D+00 EMaxC= 1.00D-01 BMatC= 6.97D-07 BMatP= 1.79D-06
 IDIUse=1 WtCom= 1.00D+00 WtEn= 0.00D+00
 Coeff-Com: -0.101D-03 0.153D-03 0.553D-05 0.370D-05 0.263D-03 0.446D-03
 Coeff-Com:  0.145D-02-0.185D-02-0.660D-02-0.623D-02 0.345D-01 0.362D-01
 Coeff-Com: -0.866D-01-0.227D+00-0.336D-01 0.129D+01
 Coeff:     -0.101D-03 0.153D-03 0.553D-05 0.370D-05 0.263D-03 0.446D-03
 Coeff:      0.145D-02-0.185D-02-0.660D-02-0.623D-02 0.345D-01 0.362D-01
 Coeff:     -0.866D-01-0.227D+00-0.336D-01 0.129D+01
 Gap=     0.252 Goal=   None    Shift=    0.000
 Gap=     0.344 Goal=   None    Shift=    0.000
 RMSDP=4.38D-06 MaxDP=3.40D-04 DE=-1.36D-06 OVMax= 1.19D-03

 Cycle  17  Pass 1  IDiag  1:
 RMSU=  1.58D-06    CP:  3.13D-01  2.66D+00  9.76D-01  5.62D-01  9.69D-01
                    CP:  1.10D+00  1.38D+00  1.74D+00  2.70D+00  3.00D+00
                    CP:  3.00D+00  3.00D+00  2.35D+00  1.54D+00  1.62D+00
                    CP:  1.96D+00
 E= -2406.04275626085     Delta-E=       -0.000001052776 Rises=F Damp=F
 DIIS: error= 2.77D-05 at cycle  17 NSaved=  17.
 NSaved=17 IEnMin=17 EnMin= -2406.04275626085     IErMin=17 ErrMin= 2.77D-05
 ErrMax= 2.77D-05  0.00D+00 EMaxC= 1.00D-01 BMatC= 1.98D-07 BMatP= 6.97D-07
 IDIUse=1 WtCom= 1.00D+00 WtEn= 0.00D+00
 Coeff-Com:  0.228D-05-0.155D-05 0.108D-05 0.215D-05-0.420D-04-0.165D-03
 Coeff-Com:  0.350D-06 0.519D-02 0.116D-02-0.190D-01-0.238D-01 0.430D-01
 Coeff-Com:  0.332D-01-0.130D+00-0.335D+00 0.857D-01 0.134D+01
 Coeff:      0.228D-05-0.155D-05 0.108D-05 0.215D-05-0.420D-04-0.165D-03
 Coeff:      0.350D-06 0.519D-02 0.116D-02-0.190D-01-0.238D-01 0.430D-01
 Coeff:      0.332D-01-0.130D+00-0.335D+00 0.857D-01 0.134D+01
 Gap=     0.252 Goal=   None    Shift=    0.000
 Gap=     0.344 Goal=   None    Shift=    0.000
 RMSDP=4.10D-06 MaxDP=3.78D-04 DE=-1.05D-06 OVMax= 1.28D-03

 Cycle  18  Pass 1  IDiag  1:
 RMSU=  1.03D-06    CP:  3.13D-01  2.66D+00  9.76D-01  5.62D-01  9.69D-01
                    CP:  1.10D+00  1.38D+00  1.74D+00  2.71D+00  3.00D+00
                    CP:  3.00D+00  3.00D+00  2.41D+00  1.63D+00  1.94D+00
                    CP:  2.87D+00  2.06D+00
 E= -2406.04275690818     Delta-E=       -0.000000647333 Rises=F Damp=F
 DIIS: error= 2.11D-05 at cycle  18 NSaved=  18.
 NSaved=18 IEnMin=18 EnMin= -2406.04275690818     IErMin=18 ErrMin= 2.11D-05
 ErrMax= 2.11D-05  0.00D+00 EMaxC= 1.00D-01 BMatC= 8.84D-08 BMatP= 1.98D-07
 IDIUse=1 WtCom= 1.00D+00 WtEn= 0.00D+00
 Coeff-Com:  0.230D-04-0.375D-04-0.229D-05 0.411D-06-0.108D-03-0.206D-03
 Coeff-Com: -0.662D-03 0.246D-02 0.360D-02-0.195D-02-0.195D-01-0.661D-02
 Coeff-Com:  0.354D-01 0.513D-01-0.629D-01-0.387D+00 0.324D+00 0.106D+01
 Coeff:      0.230D-04-0.375D-04-0.229D-05 0.411D-06-0.108D-03-0.206D-03
 Coeff:     -0.662D-03 0.246D-02 0.360D-02-0.195D-02-0.195D-01-0.661D-02
 Coeff:      0.354D-01 0.513D-01-0.629D-01-0.387D+00 0.324D+00 0.106D+01
 Gap=     0.252 Goal=   None    Shift=    0.000
 Gap=     0.345 Goal=   None    Shift=    0.000
 RMSDP=2.48D-06 MaxDP=2.48D-04 DE=-6.47D-07 OVMax= 8.18D-04

 Cycle  19  Pass 1  IDiag  1:
 RMSU=  1.10D-06    CP:  3.13D-01  2.66D+00  9.76D-01  5.62D-01  9.69D-01
                    CP:  1.10D+00  1.38D+00  1.74D+00  2.72D+00  3.00D+00
                    CP:  3.00D+00  3.00D+00  2.44D+00  1.68D+00  2.09D+00
                    CP:  3.00D+00  2.83D+00  1.75D+00
 E= -2406.04275715204     Delta-E=       -0.000000243861 Rises=F Damp=F
 DIIS: error= 1.41D-05 at cycle  19 NSaved=  19.
 NSaved=19 IEnMin=19 EnMin= -2406.04275715204     IErMin=19 ErrMin= 1.41D-05
 ErrMax= 1.41D-05  0.00D+00 EMaxC= 1.00D-01 BMatC= 3.71D-08 BMatP= 8.84D-08
 IDIUse=1 WtCom= 1.00D+00 WtEn= 0.00D+00
 Coeff-Com:  0.156D-04-0.199D-04-0.600D-06-0.155D-05-0.397D-04-0.507D-04
 Coeff-Com: -0.162D-03-0.129D-02 0.959D-03 0.931D-02 0.107D-01-0.206D-01
 Coeff-Com: -0.182D-01 0.527D-01 0.130D+00-0.438D-01-0.576D+00 0.485D-01
 Coeff-Com:  0.141D+01
 Coeff:      0.156D-04-0.199D-04-0.600D-06-0.155D-05-0.397D-04-0.507D-04
 Coeff:     -0.162D-03-0.129D-02 0.959D-03 0.931D-02 0.107D-01-0.206D-01
 Coeff:     -0.182D-01 0.527D-01 0.130D+00-0.438D-01-0.576D+00 0.485D-01
 Coeff:      0.141D+01
 Gap=     0.252 Goal=   None    Shift=    0.000
 Gap=     0.345 Goal=   None    Shift=    0.000
 RMSDP=2.21D-06 MaxDP=2.52D-04 DE=-2.44D-07 OVMax= 8.01D-04

 Cycle  20  Pass 1  IDiag  1:
 RMSU=  1.04D-06    CP:  3.13D-01  2.66D+00  9.76D-01  5.62D-01  9.69D-01
                    CP:  1.10D+00  1.38D+00  1.74D+00  2.72D+00  3.00D+00
                    CP:  3.00D+00  3.00D+00  2.47D+00  1.70D+00  2.21D+00
                    CP:  3.00D+00  3.00D+00  2.55D+00  2.19D+00
 E= -2406.04275729657     Delta-E=       -0.000000144529 Rises=F Damp=F
 DIIS: error= 7.97D-06 at cycle  20 NSaved=  20.
 NSaved=20 IEnMin=20 EnMin= -2406.04275729657     IErMin=20 ErrMin= 7.97D-06
 ErrMax= 7.97D-06  0.00D+00 EMaxC= 1.00D-01 BMatC= 1.40D-08 BMatP= 3.71D-08
 IDIUse=1 WtCom= 1.00D+00 WtEn= 0.00D+00
 Coeff-Com:  0.274D-05-0.234D-05 0.124D-05-0.143D-05-0.287D-05-0.423D-04
 Coeff-Com:  0.257D-03-0.547D-03-0.648D-03 0.472D-03 0.624D-02 0.464D-02
 Coeff-Com: -0.154D-01-0.271D-01 0.257D-01 0.178D+00-0.139D+00-0.485D+00
 Coeff-Com: -0.106D-01 0.146D+01
 Coeff:      0.274D-05-0.234D-05 0.124D-05-0.143D-05-0.287D-05-0.423D-04
 Coeff:      0.257D-03-0.547D-03-0.648D-03 0.472D-03 0.624D-02 0.464D-02
 Coeff:     -0.154D-01-0.271D-01 0.257D-01 0.178D+00-0.139D+00-0.485D+00
 Coeff:     -0.106D-01 0.146D+01
 Gap=     0.252 Goal=   None    Shift=    0.000
 Gap=     0.345 Goal=   None    Shift=    0.000
 RMSDP=1.60D-06 MaxDP=1.89D-04 DE=-1.45D-07 OVMax= 5.91D-04

 Cycle  21  Pass 1  IDiag  1:
 Restarting incremental Fock formation.
 E= -2406.04275735152     Delta-E=       -0.000000054952 Rises=F Damp=F
 DIIS: error= 2.53D-06 at cycle  21 NSaved=  20.
 NSaved=20 IEnMin=20 EnMin= -2406.04275735152     IErMin=20 ErrMin= 2.53D-06
 ErrMax= 2.53D-06  0.00D+00 EMaxC= 1.00D-01 BMatC= 4.24D-09 BMatP= 1.40D-08
 IDIUse=1 WtCom= 1.00D+00 WtEn= 0.00D+00
 Coeff-Com: -0.155D-05 0.208D-05-0.228D-06 0.127D-04 0.206D-05 0.159D-03
 Coeff-Com: -0.281D-04-0.570D-03-0.212D-02-0.423D-03 0.742D-02-0.169D-03
 Coeff-Com: -0.247D-01-0.293D-01 0.672D-01 0.111D+00-0.142D+00-0.447D+00
 Coeff-Com:  0.540D+00 0.921D+00
 Coeff:     -0.155D-05 0.208D-05-0.228D-06 0.127D-04 0.206D-05 0.159D-03
 Coeff:     -0.281D-04-0.570D-03-0.212D-02-0.423D-03 0.742D-02-0.169D-03
 Coeff:     -0.247D-01-0.293D-01 0.672D-01 0.111D+00-0.142D+00-0.447D+00
 Coeff:      0.540D+00 0.921D+00
 Gap=     0.252 Goal=   None    Shift=    0.000
 Gap=     0.345 Goal=   None    Shift=    0.000
 RMSDP=6.20D-07 MaxDP=7.27D-05 DE=-5.50D-08 OVMax= 2.27D-04

 Cycle  22  Pass 1  IDiag  1:
 RMSU=  6.20D-07    CP:  1.00D+00
 E= -2406.04275736079     Delta-E=       -0.000000009262 Rises=F Damp=F
 DIIS: error= 9.53D-07 at cycle  22 NSaved=  20.
 NSaved=20 IEnMin=20 EnMin= -2406.04275736079     IErMin=20 ErrMin= 9.53D-07
 ErrMax= 9.53D-07  0.00D+00 EMaxC= 1.00D-01 BMatC= 1.36D-09 BMatP= 4.24D-09
 IDIUse=1 WtCom= 1.00D+00 WtEn= 0.00D+00
 Coeff-Com: -0.198D-05 0.265D-05 0.698D-05 0.200D-04-0.955D-05 0.627D-04
 Coeff-Com: -0.294D-03-0.491D-03-0.112D-02-0.860D-04 0.459D-02 0.366D-02
 Coeff-Com: -0.125D-01-0.391D-01 0.415D-01 0.143D+00-0.942D-01-0.293D+00
 Coeff-Com:  0.132D+00 0.112D+01
 Coeff:     -0.198D-05 0.265D-05 0.698D-05 0.200D-04-0.955D-05 0.627D-04
 Coeff:     -0.294D-03-0.491D-03-0.112D-02-0.860D-04 0.459D-02 0.366D-02
 Coeff:     -0.125D-01-0.391D-01 0.415D-01 0.143D+00-0.942D-01-0.293D+00
 Coeff:      0.132D+00 0.112D+01
 Gap=     0.252 Goal=   None    Shift=    0.000
 Gap=     0.345 Goal=   None    Shift=    0.000
 RMSDP=2.69D-07 MaxDP=2.77D-05 DE=-9.26D-09 OVMax= 8.78D-05

 Cycle  23  Pass 1  IDiag  1:
 RMSU=  1.17D-07    CP:  1.00D+00  1.39D+00
 E= -2406.04275736299     Delta-E=       -0.000000002202 Rises=F Damp=F
 DIIS: error= 4.34D-07 at cycle  23 NSaved=  20.
 NSaved=20 IEnMin=20 EnMin= -2406.04275736299     IErMin=20 ErrMin= 4.34D-07
 ErrMax= 4.34D-07  0.00D+00 EMaxC= 1.00D-01 BMatC= 3.86D-10 BMatP= 1.36D-09
 IDIUse=1 WtCom= 1.00D+00 WtEn= 0.00D+00
 Coeff-Com:  0.107D-06 0.304D-05 0.153D-04-0.312D-04-0.336D-04-0.119D-03
 Coeff-Com:  0.420D-03 0.726D-04-0.209D-02 0.158D-02 0.858D-02 0.558D-02
 Coeff-Com: -0.318D-01-0.251D-01 0.937D-01 0.808D-01-0.226D+00-0.206D+00
 Coeff-Com:  0.401D+00 0.900D+00
 Coeff:      0.107D-06 0.304D-05 0.153D-04-0.312D-04-0.336D-04-0.119D-03
 Coeff:      0.420D-03 0.726D-04-0.209D-02 0.158D-02 0.858D-02 0.558D-02
 Coeff:     -0.318D-01-0.251D-01 0.937D-01 0.808D-01-0.226D+00-0.206D+00
 Coeff:      0.401D+00 0.900D+00
 Gap=     0.252 Goal=   None    Shift=    0.000
 Gap=     0.345 Goal=   None    Shift=    0.000
 RMSDP=1.14D-07 MaxDP=9.21D-06 DE=-2.20D-09 OVMax= 2.99D-05

 Cycle  24  Pass 1  IDiag  1:
 RMSU=  4.52D-08    CP:  1.00D+00  1.53D+00  1.52D+00
 E= -2406.04275736350     Delta-E=       -0.000000000509 Rises=F Damp=F
 DIIS: error= 2.81D-07 at cycle  24 NSaved=  20.
 NSaved=20 IEnMin=20 EnMin= -2406.04275736350     IErMin=20 ErrMin= 2.81D-07
 ErrMax= 2.81D-07  0.00D+00 EMaxC= 1.00D-01 BMatC= 9.68D-11 BMatP= 3.86D-10
 IDIUse=1 WtCom= 1.00D+00 WtEn= 0.00D+00
 Coeff-Com: -0.179D-06-0.316D-05-0.593D-05-0.340D-04 0.840D-04 0.301D-03
 Coeff-Com:  0.421D-03-0.456D-03-0.135D-02 0.599D-03 0.593D-02 0.654D-02
 Coeff-Com: -0.183D-01-0.308D-01 0.419D-01 0.691D-01-0.775D-01-0.340D+00
 Coeff-Com:  0.102D+00 0.124D+01
 Coeff:     -0.179D-06-0.316D-05-0.593D-05-0.340D-04 0.840D-04 0.301D-03
 Coeff:      0.421D-03-0.456D-03-0.135D-02 0.599D-03 0.593D-02 0.654D-02
 Coeff:     -0.183D-01-0.308D-01 0.419D-01 0.691D-01-0.775D-01-0.340D+00
 Coeff:      0.102D+00 0.124D+01
 Gap=     0.252 Goal=   None    Shift=    0.000
 Gap=     0.345 Goal=   None    Shift=    0.000
 RMSDP=8.16D-08 MaxDP=4.61D-06 DE=-5.09D-10 OVMax= 2.16D-05

 Cycle  25  Pass 1  IDiag  1:
 RMSU=  2.87D-08    CP:  1.00D+00  1.59D+00  2.01D+00  1.79D+00
 E= -2406.04275736383     Delta-E=       -0.000000000330 Rises=F Damp=F
 DIIS: error= 1.44D-07 at cycle  25 NSaved=  20.
 NSaved=20 IEnMin=20 EnMin= -2406.04275736383     IErMin=20 ErrMin= 1.44D-07
 ErrMax= 1.44D-07  0.00D+00 EMaxC= 1.00D-01 BMatC= 2.21D-11 BMatP= 9.68D-11
 IDIUse=1 WtCom= 1.00D+00 WtEn= 0.00D+00
 Coeff-Com: -0.197D-05 0.901D-05-0.145D-04 0.281D-04-0.910D-04-0.220D-05
 Coeff-Com:  0.504D-03-0.461D-03-0.204D-02-0.138D-02 0.661D-02 0.827D-02
 Coeff-Com: -0.213D-01-0.258D-01 0.475D-01 0.693D-01-0.526D-01-0.278D+00
 Coeff-Com: -0.205D+00 0.145D+01
 Coeff:     -0.197D-05 0.901D-05-0.145D-04 0.281D-04-0.910D-04-0.220D-05
 Coeff:      0.504D-03-0.461D-03-0.204D-02-0.138D-02 0.661D-02 0.827D-02
 Coeff:     -0.213D-01-0.258D-01 0.475D-01 0.693D-01-0.526D-01-0.278D+00
 Coeff:     -0.205D+00 0.145D+01
 Gap=     0.252 Goal=   None    Shift=    0.000
 Gap=     0.345 Goal=   None    Shift=    0.000
 RMSDP=5.32D-08 MaxDP=3.19D-06 DE=-3.30D-10 OVMax= 1.55D-05

 Cycle  26  Pass 1  IDiag  1:
 RMSU=  1.71D-08    CP:  1.00D+00  1.63D+00  2.22D+00  2.42D+00  1.79D+00
 E= -2406.04275736390     Delta-E=       -0.000000000070 Rises=F Damp=F
 DIIS: error= 6.93D-08 at cycle  26 NSaved=  20.
 NSaved=20 IEnMin=20 EnMin= -2406.04275736390     IErMin=20 ErrMin= 6.93D-08
 ErrMax= 6.93D-08  0.00D+00 EMaxC= 1.00D-01 BMatC= 4.34D-12 BMatP= 2.21D-11
 IDIUse=1 WtCom= 1.00D+00 WtEn= 0.00D+00
 Coeff-Com: -0.275D-05 0.567D-05 0.419D-06-0.337D-04-0.102D-03 0.303D-04
 Coeff-Com:  0.302D-03 0.912D-04-0.102D-02-0.194D-02 0.312D-02 0.738D-02
 Coeff-Com: -0.616D-02-0.187D-01 0.149D-01 0.788D-01-0.998D-02-0.266D+00
 Coeff-Com: -0.115D+00 0.131D+01
 Coeff:     -0.275D-05 0.567D-05 0.419D-06-0.337D-04-0.102D-03 0.303D-04
 Coeff:      0.302D-03 0.912D-04-0.102D-02-0.194D-02 0.312D-02 0.738D-02
 Coeff:     -0.616D-02-0.187D-01 0.149D-01 0.788D-01-0.998D-02-0.266D+00
 Coeff:     -0.115D+00 0.131D+01
 Gap=     0.252 Goal=   None    Shift=    0.000
 Gap=     0.345 Goal=   None    Shift=    0.000
 RMSDP=2.17D-08 MaxDP=1.22D-06 DE=-7.05D-11 OVMax= 6.41D-06

 Cycle  27  Pass 1  IDiag  1:
 RMSU=  6.23D-09    CP:  1.00D+00  1.64D+00  2.29D+00  2.67D+00  2.19D+00
                    CP:  1.50D+00
 E= -2406.04275736390     Delta-E=        0.000000000001 Rises=F Damp=F
 DIIS: error= 2.30D-08 at cycle  27 NSaved=  20.
 NSaved=20 IEnMin=19 EnMin= -2406.04275736390     IErMin=20 ErrMin= 2.30D-08
 ErrMax= 2.30D-08  0.00D+00 EMaxC= 1.00D-01 BMatC= 1.22D-12 BMatP= 4.34D-12
 IDIUse=1 WtCom= 1.00D+00 WtEn= 0.00D+00
 Coeff-Com:  0.596D-05-0.624D-05-0.119D-04-0.289D-04-0.327D-05 0.127D-03
 Coeff-Com:  0.125D-03-0.272D-03-0.997D-03 0.380D-03 0.393D-02 0.319D-03
 Coeff-Com: -0.939D-02-0.238D-02 0.284D-01 0.311D-01-0.526D-01-0.260D+00
 Coeff-Com:  0.456D+00 0.806D+00
 Coeff:      0.596D-05-0.624D-05-0.119D-04-0.289D-04-0.327D-05 0.127D-03
 Coeff:      0.125D-03-0.272D-03-0.997D-03 0.380D-03 0.393D-02 0.319D-03
 Coeff:     -0.939D-02-0.238D-02 0.284D-01 0.311D-01-0.526D-01-0.260D+00
 Coeff:      0.456D+00 0.806D+00
 Gap=     0.252 Goal=   None    Shift=    0.000
 Gap=     0.345 Goal=   None    Shift=    0.000
 RMSDP=5.79D-09 MaxDP=3.95D-07 DE= 9.09D-13 OVMax= 1.56D-06

 SCF Done:  E(UwB97XD) =  -2406.04275736     A.U. after   27 cycles
            NFock= 27  Conv=0.58D-08     -V/T= 2.0030
 <Sx>= 0.0000 <Sy>= 0.0000 <Sz>= 2.0000 <S**2>= 6.0768 S= 2.0153
 <L.S>= 0.000000000000E+00
 KE= 2.398958588734D+03 PE=-8.956785030712D+03 EE= 2.527268132954D+03
 Annihilation of the first spin contaminant:
 S**2 before annihilation     6.0768,   after     6.0008
 Leave Link  502 at Wed Aug 23 17:06:50 2017, MaxMem=    33554432 cpu:      2234.9
 (Enter /sw/chem/g09/l801.exe)
 DoSCS=F DFT=T ScalE2(SS,OS)=  1.000000  1.000000
 Range of M.O.s used for correlation:     1   306
 NBasis=   306 NAE=    74 NBE=    70 NFC=     0 NFV=     0
 NROrb=    306 NOA=    74 NOB=    70 NVA=   232 NVB=   236

 **** Warning!!: The largest alpha MO coefficient is  0.16241118D+02


 **** Warning!!: The largest beta MO coefficient is  0.16205122D+02

 Leave Link  801 at Wed Aug 23 17:06:50 2017, MaxMem=    33554432 cpu:         0.2
 (Enter /sw/chem/g09/l1101.exe)
 Using compressed storage, NAtomX=    22.
 Will process     23 centers per pass.
 PrsmSu:  requested number of processors reduced to:   4 ShMem   1 Linda.
 PrsmSu:  requested number of processors reduced to:   4 ShMem   1 Linda.
 R6Disp: Adding Grimme-D2 dispersion energy 1st derivatives to the gradient.
 Leave Link 1101 at Wed Aug 23 17:06:51 2017, MaxMem=    33554432 cpu:         3.3
 (Enter /sw/chem/g09/l1102.exe)
 Symmetrizing basis deriv contribution to polar:
 IMax=3 JMax=2 DiffMx= 0.00D+00
 Leave Link 1102 at Wed Aug 23 17:06:51 2017, MaxMem=    33554432 cpu:         0.5
 (Enter /sw/chem/g09/l1110.exe)
 Forming Gx(P) for the SCF density, NAtomX=    22.
 Integral derivatives from FoFJK, PRISM(SPDF).
 Do as many integral derivatives as possible in FoFJK.
 G2DrvN: MDV=      33554152.
 G2DrvN: will do     2 centers at a time, making   12 passes.
 Estimated number of processors is:    7
 G2DrvN:  IPasSy=1 do centers    0 through    1.
 Calling FoFCou, ICntrl=  3107 FMM=F I1Cent=   0 AccDes= 0.00D+00.
 FoFJK:  IHMeth= 1 ICntrl=    3107 DoSepK=T KAlg= 0 I1Cent=   0 FoldK=F
 IRaf=         1 NMat=   1 IRICut=       1 DoRegI=T DoRafI=F ISym2E= 0.
 FoFCou: FMM=F IPFlag=           0 FMFlag=      100000 FMFlg1=           0
         NFxFlg=           0 DoJE=F BraDBF=F KetDBF=F FulRan=T
         wScrn=  0.000000 ICntrl=    3507 IOpCl=  0 I1Cent=           0 NGrid=           0
         NMat0=    1 NMatS0=      1 NMatT0=    0 NMatD0=    1 NMtDS0=    0 NMtDT0=    0
 Symmetry not used in FoFCou.
 CoulSu:  requested number of processors reduced to:   7 ShMem   1 Linda.
 CoulSu:  requested number of processors reduced to:   7 ShMem   1 Linda.
 G2DrvN:  IPasSy=1 do centers    2 through    3.
 Calling FoFCou, ICntrl=  3107 FMM=F I1Cent=   0 AccDes= 0.00D+00.
 CoulSu:  requested number of processors reduced to:   7 ShMem   1 Linda.
 CoulSu:  requested number of processors reduced to:   7 ShMem   1 Linda.
 G2DrvN:  IPasSy=1 do centers    4 through    5.
 Calling FoFCou, ICntrl=  3107 FMM=F I1Cent=   0 AccDes= 0.00D+00.
 CoulSu:  requested number of processors reduced to:   7 ShMem   1 Linda.
 CoulSu:  requested number of processors reduced to:   7 ShMem   1 Linda.
 G2DrvN:  IPasSy=1 do centers    6 through    7.
 Calling FoFCou, ICntrl=  3107 FMM=F I1Cent=   0 AccDes= 0.00D+00.
 CoulSu:  requested number of processors reduced to:   7 ShMem   1 Linda.
 CoulSu:  requested number of processors reduced to:   7 ShMem   1 Linda.
 G2DrvN:  IPasSy=1 do centers    8 through    9.
 Calling FoFCou, ICntrl=  3107 FMM=F I1Cent=   0 AccDes= 0.00D+00.
 CoulSu:  requested number of processors reduced to:   7 ShMem   1 Linda.
 CoulSu:  requested number of processors reduced to:   7 ShMem   1 Linda.
 G2DrvN:  IPasSy=1 do centers   10 through   11.
 Calling FoFCou, ICntrl=  3107 FMM=F I1Cent=   0 AccDes= 0.00D+00.
 CoulSu:  requested number of processors reduced to:   7 ShMem   1 Linda.
 CoulSu:  requested number of processors reduced to:   7 ShMem   1 Linda.
 G2DrvN:  IPasSy=1 do centers   12 through   13.
 Calling FoFCou, ICntrl=  3107 FMM=F I1Cent=   0 AccDes= 0.00D+00.
 CoulSu:  requested number of processors reduced to:   7 ShMem   1 Linda.
 CoulSu:  requested number of processors reduced to:   7 ShMem   1 Linda.
 G2DrvN:  IPasSy=1 do centers   14 through   15.
 Calling FoFCou, ICntrl=  3107 FMM=F I1Cent=   0 AccDes= 0.00D+00.
 CoulSu:  requested number of processors reduced to:   7 ShMem   1 Linda.
 CoulSu:  requested number of processors reduced to:   7 ShMem   1 Linda.
 G2DrvN:  IPasSy=1 do centers   16 through   17.
 Calling FoFCou, ICntrl=  3107 FMM=F I1Cent=   0 AccDes= 0.00D+00.
 CoulSu:  requested number of processors reduced to:   7 ShMem   1 Linda.
 CoulSu:  requested number of processors reduced to:   7 ShMem   1 Linda.
 G2DrvN:  IPasSy=1 do centers   18 through   19.
 Calling FoFCou, ICntrl=  3107 FMM=F I1Cent=   0 AccDes= 0.00D+00.
 CoulSu:  requested number of processors reduced to:   7 ShMem   1 Linda.
 CoulSu:  requested number of processors reduced to:   7 ShMem   1 Linda.
 G2DrvN:  IPasSy=1 do centers   20 through   21.
 Calling FoFCou, ICntrl=  3107 FMM=F I1Cent=   0 AccDes= 0.00D+00.
 CoulSu:  requested number of processors reduced to:   7 ShMem   1 Linda.
 CoulSu:  requested number of processors reduced to:   7 ShMem   1 Linda.
 G2DrvN:  IPasSy=1 do centers   22 through   22.
 Calling FoFCou, ICntrl=  3107 FMM=F I1Cent=   0 AccDes= 0.00D+00.
 CoulSu:  requested number of processors reduced to:   8 ShMem   1 Linda.
 CoulSu:  requested number of processors reduced to:   7 ShMem   1 Linda.
 End of G2Drv F.D. properties file   721 does not exist.
 End of G2Drv F.D. properties file   722 does not exist.
 End of G2Drv F.D. properties file   788 does not exist.
 Leave Link 1110 at Wed Aug 23 17:10:57 2017, MaxMem=    33554432 cpu:      2211.6
 (Enter /sw/chem/g09/l1002.exe)
 Minotr:  UHF open shell wavefunction.
          IDoAtm=1111111111111111111111
          Direct CPHF calculation.
          Differentiating once with respect to electric field.
                with respect to dipole field.
          Differentiating once with respect to nuclear coordinates.
          Requested convergence is 1.0D-08 RMS, and 1.0D-07 maximum.
          Secondary convergence is 1.0D-12 RMS, and 1.0D-12 maximum.
          NewPWx=T KeepS1=F KeepF1=F KeepIn=T MapXYZ=F SortEE=F KeepMc=T.
          MDV=      33553596 using IRadAn=       2.
 Generate precomputed XC quadrature information.
          Solving linear equations simultaneously, MaxMat=       0.
 FoFJK:  IHMeth= 1 ICntrl=       0 DoSepK=T KAlg= 0 I1Cent=   0 FoldK=F
 IRaf=         1 NMat=   5 IRICut=       1 DoRegI=T DoRafI=F ISym2E= 0.
 FoFCou: FMM=F IPFlag=           0 FMFlag=      100000 FMFlg1=           0
         NFxFlg=           0 DoJE=F BraDBF=F KetDBF=F FulRan=T
         wScrn=  0.000000 ICntrl=     500 IOpCl=  0 I1Cent=           0 NGrid=           0
         NMat0=    5 NMatS0=      5 NMatT0=    0 NMatD0=    5 NMtDS0=    0 NMtDT0=    0
 Symmetry not used in FoFCou.
          There are    69 degrees of freedom in the 1st order CPHF.  IDoFFX=6 NUNeed=     3.
     69 vectors produced by pass  0 Test12= 4.88D-14 1.45D-09 XBig12= 9.39D+01 2.72D+00.
 AX will form     5 AO Fock derivatives at one time.
     69 vectors produced by pass  1 Test12= 4.88D-14 1.45D-09 XBig12= 2.05D+01 1.08D+00.
     66 vectors produced by pass  2 Test12= 4.88D-14 1.45D-09 XBig12= 2.29D+00 2.40D-01.
     66 vectors produced by pass  3 Test12= 4.88D-14 1.45D-09 XBig12= 6.59D-02 3.81D-02.
     66 vectors produced by pass  4 Test12= 4.88D-14 1.45D-09 XBig12= 1.10D-03 3.43D-03.
     66 vectors produced by pass  5 Test12= 4.88D-14 1.45D-09 XBig12= 1.61D-05 4.61D-04.
     66 vectors produced by pass  6 Test12= 4.88D-14 1.45D-09 XBig12= 1.82D-07 5.04D-05.
     53 vectors produced by pass  7 Test12= 4.88D-14 1.45D-09 XBig12= 2.01D-09 5.36D-06.
     26 vectors produced by pass  8 Test12= 4.88D-14 1.45D-09 XBig12= 2.15D-11 4.82D-07.
      4 vectors produced by pass  9 Test12= 4.88D-14 1.45D-09 XBig12= 2.15D-13 3.65D-08.
      3 vectors produced by pass 10 Test12= 4.88D-14 1.45D-09 XBig12= 2.43D-15 3.55D-09.
 InvSVY:  IOpt=1 It=  1 EMax= 7.31D-15
 Solved reduced A of dimension   554 with    69 vectors.
 FullF1:  Do perturbations    1 to     3.
 Isotropic polarizability for W=    0.000000      114.53 Bohr**3.
 End of Minotr F.D. properties file   721 does not exist.
 End of Minotr F.D. properties file   722 does not exist.
 End of Minotr F.D. properties file   788 does not exist.
 Leave Link 1002 at Wed Aug 23 17:28:57 2017, MaxMem=    33554432 cpu:     12952.5
 (Enter /sw/chem/g09/l601.exe)
 Copying SCF densities to generalized density rwf, IOpCl= 1 IROHF=0.

 **********************************************************************

            Population analysis using the SCF density.

 **********************************************************************

 Alpha  occ. eigenvalues -- -216.01381 -66.42413 -66.42389 -24.94454 -24.83050
 Alpha  occ. eigenvalues --  -24.83026 -24.82910 -24.82833 -21.21376 -21.21336
 Alpha  occ. eigenvalues --  -21.20928 -19.29244 -19.27648 -19.27604 -10.30369
 Alpha  occ. eigenvalues --  -10.30211 -10.29770 -10.29725  -5.51863  -5.51839
 Alpha  occ. eigenvalues --   -3.86524  -3.86500  -3.86429  -3.86406  -3.86326
 Alpha  occ. eigenvalues --   -3.86301  -3.11783  -2.06530  -2.06341  -2.05510
 Alpha  occ. eigenvalues --   -1.31483  -1.31375  -1.29428  -1.29400  -1.14618
 Alpha  occ. eigenvalues --   -1.09256  -1.09198  -0.91890  -0.83236  -0.74470
 Alpha  occ. eigenvalues --   -0.70689  -0.68122  -0.64849  -0.60948  -0.59627
 Alpha  occ. eigenvalues --   -0.59464  -0.58572  -0.57999  -0.57318  -0.54878
 Alpha  occ. eigenvalues --   -0.54263  -0.53982  -0.53611  -0.53138  -0.53045
 Alpha  occ. eigenvalues --   -0.52325  -0.52073  -0.51780  -0.51280  -0.50924
 Alpha  occ. eigenvalues --   -0.50244  -0.48582  -0.48268  -0.47341  -0.46506
 Alpha  occ. eigenvalues --   -0.46115  -0.45708  -0.44573  -0.43631  -0.39901
 Alpha  occ. eigenvalues --   -0.38642  -0.38097  -0.37706  -0.29471
 Alpha virt. eigenvalues --   -0.04266  -0.04238   0.00283   0.07723   0.09753
 Alpha virt. eigenvalues --    0.10393   0.12363   0.13050   0.13708   0.14097
 Alpha virt. eigenvalues --    0.14935   0.15470   0.16573   0.17184   0.17931
 Alpha virt. eigenvalues --    0.18431   0.19311   0.19568   0.20222   0.20452
 Alpha virt. eigenvalues --    0.21389   0.22464   0.22734   0.23289   0.24090
 Alpha virt. eigenvalues --    0.25466   0.26783   0.27437   0.29314   0.29949
 Alpha virt. eigenvalues --    0.31562   0.31987   0.33241   0.33989   0.34261
 Alpha virt. eigenvalues --    0.35106   0.35711   0.36193   0.36768   0.37216
 Alpha virt. eigenvalues --    0.38471   0.39834   0.40276   0.42572   0.43758
 Alpha virt. eigenvalues --    0.45440   0.46640   0.48295   0.48805   0.50318
 Alpha virt. eigenvalues --    0.50683   0.51796   0.51910   0.52793   0.53169
 Alpha virt. eigenvalues --    0.53795   0.54730   0.55411   0.57086   0.58035
 Alpha virt. eigenvalues --    0.58340   0.59497   0.60177   0.61501   0.63003
 Alpha virt. eigenvalues --    0.64216   0.64940   0.66595   0.67530   0.69134
 Alpha virt. eigenvalues --    0.71316   0.72155   0.74718   0.75591   0.75858
 Alpha virt. eigenvalues --    0.76570   0.78971   0.79917   0.83134   0.83864
 Alpha virt. eigenvalues --    0.84655   0.90513   0.91122   0.91469   0.94241
 Alpha virt. eigenvalues --    0.95876   1.02205   1.02596   1.05178   1.10726
 Alpha virt. eigenvalues --    1.23834   1.25963   1.28993   1.31277   1.32296
 Alpha virt. eigenvalues --    1.33316   1.34192   1.34474   1.35163   1.35865
 Alpha virt. eigenvalues --    1.36209   1.38033   1.39348   1.39497   1.40047
 Alpha virt. eigenvalues --    1.41003   1.41436   1.41657   1.42597   1.44103
 Alpha virt. eigenvalues --    1.45094   1.45247   1.46429   1.48124   1.48843
 Alpha virt. eigenvalues --    1.50304   1.51708   1.52495   1.53438   1.54735
 Alpha virt. eigenvalues --    1.55696   1.57039   1.58498   1.59990   1.62315
 Alpha virt. eigenvalues --    1.63579   1.64054   1.65889   1.67257   1.69038
 Alpha virt. eigenvalues --    1.71141   1.75212   1.76798   1.80687   1.82153
 Alpha virt. eigenvalues --    1.83373   1.85448   1.86030   1.88641   1.89022
 Alpha virt. eigenvalues --    1.89486   1.91329   1.96341   1.96841   1.98229
 Alpha virt. eigenvalues --    2.00575   2.02112   2.03942   2.08567   2.09416
 Alpha virt. eigenvalues --    2.12823   2.15259   2.17192   2.19325   2.22284
 Alpha virt. eigenvalues --    2.24890   2.27491   2.28772   2.32272   2.33170
 Alpha virt. eigenvalues --    2.33842   2.36257   2.41967   2.45318   2.48935
 Alpha virt. eigenvalues --    2.50846   2.55542   2.58891   2.59982   2.61682
 Alpha virt. eigenvalues --    2.64106   2.66019   2.66445   2.66850   2.69281
 Alpha virt. eigenvalues --    2.70355   2.71692   2.72869   2.73264   2.74299
 Alpha virt. eigenvalues --    2.75626   2.77047   2.79910   2.79958   2.80660
 Alpha virt. eigenvalues --    2.82178   2.82281   2.82967   2.84118   2.84887
 Alpha virt. eigenvalues --    2.85461   2.85964   2.86896   2.87215   2.89261
 Alpha virt. eigenvalues --    2.90416   2.92576   2.93687   2.96353   3.00198
 Alpha virt. eigenvalues --    3.05454   3.08130   3.08249   3.09019   3.10116
 Alpha virt. eigenvalues --    3.17054   3.21885   3.23224   3.24444   3.27268
 Alpha virt. eigenvalues --    3.31983   3.34544   3.35252   3.38547   3.39339
 Alpha virt. eigenvalues --    3.43978   3.45140   3.46166   3.48958   3.51927
 Alpha virt. eigenvalues --    3.53408   3.83005   3.85556  10.05863  10.17682
 Alpha virt. eigenvalues --   21.96359  22.11380  22.20027  22.23613  43.41874
 Alpha virt. eigenvalues --   43.58263  43.63249
  Beta  occ. eigenvalues -- -216.01297 -66.42407 -66.42383 -24.89724 -24.83047
  Beta  occ. eigenvalues --  -24.83023 -24.82912 -24.82834 -21.17711 -21.17687
  Beta  occ. eigenvalues --  -21.16236 -19.29240 -19.27601 -19.27555 -10.30660
  Beta  occ. eigenvalues --  -10.30138 -10.29825 -10.28616  -5.51855  -5.51831
  Beta  occ. eigenvalues --   -3.86517  -3.86493  -3.86422  -3.86399  -3.86315
  Beta  occ. eigenvalues --   -3.86289  -2.98554  -1.93153  -1.92914  -1.89612
  Beta  occ. eigenvalues --   -1.31478  -1.31370  -1.29425  -1.29397  -1.14580
  Beta  occ. eigenvalues --   -1.09008  -1.08971  -0.91430  -0.82145  -0.73210
  Beta  occ. eigenvalues --   -0.70639  -0.66922  -0.64658  -0.60877  -0.59495
  Beta  occ. eigenvalues --   -0.58901  -0.58430  -0.57639  -0.57091  -0.54715
  Beta  occ. eigenvalues --   -0.53572  -0.53380  -0.53119  -0.53078  -0.52887
  Beta  occ. eigenvalues --   -0.52230  -0.51666  -0.51511  -0.51074  -0.50863
  Beta  occ. eigenvalues --   -0.49384  -0.47335  -0.46761  -0.46545  -0.45170
  Beta  occ. eigenvalues --   -0.44663  -0.44553  -0.43920  -0.43307  -0.37542
  Beta virt. eigenvalues --   -0.03080  -0.00618   0.00423   0.00744   0.01786
  Beta virt. eigenvalues --    0.01973   0.04073   0.08309   0.10380   0.11228
  Beta virt. eigenvalues --    0.12902   0.13210   0.13938   0.14375   0.15201
  Beta virt. eigenvalues --    0.16843   0.17477   0.18061   0.18345   0.18610
  Beta virt. eigenvalues --    0.19541   0.19655   0.20513   0.20587   0.21571
  Beta virt. eigenvalues --    0.22597   0.23117   0.23692   0.24402   0.25608
  Beta virt. eigenvalues --    0.27021   0.27745   0.29741   0.30146   0.31968
  Beta virt. eigenvalues --    0.32104   0.33862   0.34318   0.34730   0.35760
  Beta virt. eigenvalues --    0.36149   0.36609   0.37262   0.38397   0.39123
  Beta virt. eigenvalues --    0.40430   0.41025   0.42910   0.44254   0.45881
  Beta virt. eigenvalues --    0.46655   0.48472   0.49362   0.50994   0.51379
  Beta virt. eigenvalues --    0.52468   0.52511   0.52872   0.53804   0.54310
  Beta virt. eigenvalues --    0.55133   0.56081   0.57372   0.58714   0.58969
  Beta virt. eigenvalues --    0.60038   0.60792   0.62437   0.63549   0.64658
  Beta virt. eigenvalues --    0.65115   0.67266   0.67754   0.69835   0.71749
  Beta virt. eigenvalues --    0.72366   0.75110   0.76094   0.76148   0.76758
  Beta virt. eigenvalues --    0.79242   0.80121   0.83616   0.83914   0.84852
  Beta virt. eigenvalues --    0.91073   0.91191   0.91554   0.94326   0.96088
  Beta virt. eigenvalues --    1.02330   1.02700   1.05223   1.10780   1.24300
  Beta virt. eigenvalues --    1.26399   1.30641   1.32042   1.32647   1.33697
  Beta virt. eigenvalues --    1.34372   1.34727   1.35619   1.36664   1.37042
  Beta virt. eigenvalues --    1.38366   1.39489   1.39700   1.40459   1.41380
  Beta virt. eigenvalues --    1.41732   1.41976   1.43215   1.44259   1.45223
  Beta virt. eigenvalues --    1.46335   1.47075   1.49579   1.50790   1.52249
  Beta virt. eigenvalues --    1.52540   1.53410   1.53705   1.55464   1.56204
  Beta virt. eigenvalues --    1.57985   1.59431   1.61139   1.62612   1.64883
  Beta virt. eigenvalues --    1.65558   1.66375   1.67854   1.69505   1.71417
  Beta virt. eigenvalues --    1.75689   1.77187   1.80936   1.82388   1.85337
  Beta virt. eigenvalues --    1.86426   1.86891   1.89695   1.89985   1.91266
  Beta virt. eigenvalues --    1.93347   1.96700   1.97642   2.00944   2.01206
  Beta virt. eigenvalues --    2.03673   2.05562   2.11445   2.12345   2.14483
  Beta virt. eigenvalues --    2.18926   2.20662   2.21243   2.24996   2.27736
  Beta virt. eigenvalues --    2.28976   2.29365   2.33446   2.34196   2.35774
  Beta virt. eigenvalues --    2.36451   2.43491   2.46583   2.50309   2.52124
  Beta virt. eigenvalues --    2.56504   2.59926   2.60980   2.62501   2.64759
  Beta virt. eigenvalues --    2.66660   2.67825   2.68176   2.70123   2.70792
  Beta virt. eigenvalues --    2.72368   2.73576   2.73959   2.75188   2.75947
  Beta virt. eigenvalues --    2.77371   2.80258   2.80811   2.81455   2.82849
  Beta virt. eigenvalues --    2.83058   2.83687   2.84532   2.85238   2.85839
  Beta virt. eigenvalues --    2.86899   2.87501   2.89069   2.90625   2.90999
  Beta virt. eigenvalues --    2.94763   2.98155   2.98919   3.07231   3.08936
  Beta virt. eigenvalues --    3.10052   3.14029   3.14388   3.15348   3.18654
  Beta virt. eigenvalues --    3.22596   3.23874   3.24930   3.27877   3.32405
  Beta virt. eigenvalues --    3.36137   3.37553   3.39356   3.41091   3.44462
  Beta virt. eigenvalues --    3.45499   3.46622   3.49262   3.52465   3.53579
  Beta virt. eigenvalues --    3.86031   3.88391  10.05877  10.17700  21.98374
  Beta virt. eigenvalues --   22.11097  22.19936  22.23605  43.41891  43.58302
  Beta virt. eigenvalues --   43.63302
          Condensed to atoms (all electrons):
               1          2          3          4          5          6
     1  Cr  22.693594   0.220478   0.219931   0.009649  -0.023485  -0.024572
     2  O    0.220478   8.064293  -0.021986  -0.032266   0.005698   0.373153
     3  O    0.219931  -0.021986   8.062584  -0.032001   0.372556   0.005235
     4  O    0.009649  -0.032266  -0.032001   7.804879   0.364527   0.365772
     5  Si  -0.023485   0.005698   0.372556   0.364527  11.618358  -0.066175
     6  Si  -0.024572   0.373153   0.005235   0.365772  -0.066175  11.615622
     7  C    0.182698  -0.018770  -0.015564  -0.004091   0.004085   0.005662
     8  C    0.012010  -0.000973  -0.003555   0.014339  -0.013284  -0.013718
     9  H   -0.002216   0.003015   0.000350   0.000018   0.000070   0.000211
    10  H   -0.007143   0.000149   0.002382   0.000036   0.000225  -0.000108
    11  C    0.003246  -0.000240  -0.000185   0.000032  -0.000933  -0.001179
    12  H   -0.005636  -0.004031   0.001760  -0.003987  -0.000105   0.011487
    13  H   -0.002699   0.001751  -0.001922  -0.004349   0.010608  -0.000002
    14  C   -0.000338  -0.000095  -0.000045   0.000026  -0.000053   0.000066
    15  H   -0.000564   0.000003   0.000001   0.000015  -0.000003   0.000042
    16  H    0.000131  -0.000010   0.000023  -0.000005   0.000033   0.000003
    17  H   -0.000028  -0.000002   0.000000   0.000000  -0.000002   0.000001
    18  H    0.000259   0.000058   0.000001  -0.000004  -0.000006   0.000041
    19  F    0.000981   0.000009  -0.009299  -0.006502   0.340182  -0.000671
    20  F    0.001900   0.000001  -0.013272  -0.011080   0.372046  -0.000699
    21  F    0.002288  -0.013326  -0.000002  -0.011294  -0.000536   0.370921
    22  F    0.001115  -0.009549   0.000003  -0.006203  -0.000508   0.340551
               7          8          9         10         11         12
     1  Cr   0.182698   0.012010  -0.002216  -0.007143   0.003246  -0.005636
     2  O   -0.018770  -0.000973   0.003015   0.000149  -0.000240  -0.004031
     3  O   -0.015564  -0.003555   0.000350   0.002382  -0.000185   0.001760
     4  O   -0.004091   0.014339   0.000018   0.000036   0.000032  -0.003987
     5  Si   0.004085  -0.013284   0.000070   0.000225  -0.000933  -0.000105
     6  Si   0.005662  -0.013718   0.000211  -0.000108  -0.001179   0.011487
     7  C    5.410100   0.050609   0.389749   0.374792  -0.110585  -0.046248
     8  C    0.050609   5.618397  -0.028017  -0.022456   0.193530   0.330556
     9  H    0.389749  -0.028017   0.519268  -0.026331  -0.001063  -0.002891
    10  H    0.374792  -0.022456  -0.026331   0.547781   0.006142   0.005230
    11  C   -0.110585   0.193530  -0.001063   0.006142   5.091145  -0.006968
    12  H   -0.046248   0.330556  -0.002891   0.005230  -0.006968   0.592178
    13  H   -0.037973   0.326887   0.004539  -0.003528  -0.003275  -0.021102
    14  C    0.017347  -0.045668   0.007990  -0.001672   0.222401  -0.013268
    15  H    0.018267  -0.062570  -0.000193  -0.000173   0.412599  -0.002986
    16  H   -0.016246  -0.034040   0.000260   0.003994   0.441610   0.005253
    17  H    0.001037   0.005708  -0.000043  -0.000097  -0.031612   0.000035
    18  H   -0.008764   0.009771   0.000058   0.000258  -0.041026   0.000704
    19  F   -0.000619  -0.014062   0.000015  -0.000004   0.000653  -0.000375
    20  F    0.000011  -0.000034   0.000000   0.000000   0.000000   0.000002
    21  F    0.000015  -0.000042   0.000000   0.000000   0.000000   0.000003
    22  F    0.000649  -0.015472  -0.000032   0.000005   0.000111   0.033328
              13         14         15         16         17         18
     1  Cr  -0.002699  -0.000338  -0.000564   0.000131  -0.000028   0.000259
     2  O    0.001751  -0.000095   0.000003  -0.000010  -0.000002   0.000058
     3  O   -0.001922  -0.000045   0.000001   0.000023   0.000000   0.000001
     4  O   -0.004349   0.000026   0.000015  -0.000005   0.000000  -0.000004
     5  Si   0.010608  -0.000053  -0.000003   0.000033  -0.000002  -0.000006
     6  Si  -0.000002   0.000066   0.000042   0.000003   0.000001   0.000041
     7  C   -0.037973   0.017347   0.018267  -0.016246   0.001037  -0.008764
     8  C    0.326887  -0.045668  -0.062570  -0.034040   0.005708   0.009771
     9  H    0.004539   0.007990  -0.000193   0.000260  -0.000043   0.000058
    10  H   -0.003528  -0.001672  -0.000173   0.003994  -0.000097   0.000258
    11  C   -0.003275   0.222401   0.412599   0.441610  -0.031612  -0.041026
    12  H   -0.021102  -0.013268  -0.002986   0.005253   0.000035   0.000704
    13  H    0.563120   0.002265  -0.001588  -0.003602  -0.000349   0.000303
    14  C    0.002265   5.467728  -0.037665  -0.059214   0.403302   0.398938
    15  H   -0.001588  -0.037665   0.554570  -0.029726  -0.000262  -0.000538
    16  H   -0.003602  -0.059214  -0.029726   0.569789  -0.003714   0.005503
    17  H   -0.000349   0.403302  -0.000262  -0.003714   0.503013  -0.022039
    18  H    0.000303   0.398938  -0.000538   0.005503  -0.022039   0.512581
    19  F    0.033428  -0.000020  -0.000012   0.000008   0.000000   0.000000
    20  F   -0.000007   0.000000   0.000000   0.000000   0.000000   0.000000
    21  F    0.000002   0.000000   0.000000   0.000000   0.000000   0.000000
    22  F   -0.000069   0.000012   0.000013  -0.000004   0.000000  -0.000034
              19         20         21         22
     1  Cr   0.000981   0.001900   0.002288   0.001115
     2  O    0.000009   0.000001  -0.013326  -0.009549
     3  O   -0.009299  -0.013272  -0.000002   0.000003
     4  O   -0.006502  -0.011080  -0.011294  -0.006203
     5  Si   0.340182   0.372046  -0.000536  -0.000508
     6  Si  -0.000671  -0.000699   0.370921   0.340551
     7  C   -0.000619   0.000011   0.000015   0.000649
     8  C   -0.014062  -0.000034  -0.000042  -0.015472
     9  H    0.000015   0.000000   0.000000  -0.000032
    10  H   -0.000004   0.000000   0.000000   0.000005
    11  C    0.000653   0.000000   0.000000   0.000111
    12  H   -0.000375   0.000002   0.000003   0.033328
    13  H    0.033428  -0.000007   0.000002  -0.000069
    14  C   -0.000020   0.000000   0.000000   0.000012
    15  H   -0.000012   0.000000   0.000000   0.000013
    16  H    0.000008   0.000000   0.000000  -0.000004
    17  H    0.000000   0.000000   0.000000   0.000000
    18  H    0.000000   0.000000   0.000000  -0.000034
    19  F    8.970776  -0.007712   0.000000   0.000000
    20  F   -0.007712   8.957446   0.000000   0.000000
    21  F    0.000000   0.000000   8.958922  -0.007660
    22  F    0.000000   0.000000  -0.007660   8.970245
          Atomic-Atomic Spin Densities.
               1          2          3          4          5          6
     1  Cr   3.313434  -0.038230  -0.037718   0.002335  -0.010004  -0.010302
     2  O   -0.038230   0.044140   0.003705  -0.000704   0.000487   0.005109
     3  O   -0.037718   0.003705   0.042899  -0.000707   0.005172   0.000517
     4  O    0.002335  -0.000704  -0.000707   0.002367  -0.001430  -0.001523
     5  Si  -0.010004   0.000487   0.005172  -0.001430   0.013456   0.000864
     6  Si  -0.010302   0.005109   0.000517  -0.001523   0.000864   0.013827
     7  C   -0.047897   0.001464   0.001523   0.000217  -0.000225   0.000030
     8  C   -0.008107  -0.000530  -0.000702  -0.000009   0.000159   0.000145
     9  H   -0.001527  -0.000039  -0.000037  -0.000002  -0.000003   0.000021
    10  H   -0.001560  -0.000083  -0.000139  -0.000003   0.000027   0.000008
    11  C   -0.002137   0.000017   0.000036  -0.000002  -0.000005   0.000003
    12  H    0.000851  -0.000021  -0.000046   0.000027   0.000073  -0.000114
    13  H    0.000358   0.000003   0.000140   0.000008  -0.000072   0.000056
    14  C    0.000877  -0.000011  -0.000007   0.000000  -0.000013   0.000042
    15  H   -0.000092  -0.000003  -0.000003   0.000000  -0.000014   0.000030
    16  H   -0.000010   0.000000   0.000000   0.000000   0.000009  -0.000006
    17  H    0.000020   0.000000   0.000000   0.000000   0.000000   0.000000
    18  H   -0.000141   0.000003   0.000000   0.000000   0.000001  -0.000011
    19  F    0.000343   0.000001  -0.000390   0.000020  -0.000835  -0.000007
    20  F    0.000058  -0.000001  -0.000030   0.000038  -0.000027  -0.000017
    21  F    0.000065  -0.000059  -0.000001   0.000042  -0.000016  -0.000068
    22  F    0.000326  -0.000376   0.000001   0.000025  -0.000004  -0.000845
               7          8          9         10         11         12
     1  Cr  -0.047897  -0.008107  -0.001527  -0.001560  -0.002137   0.000851
     2  O    0.001464  -0.000530  -0.000039  -0.000083   0.000017  -0.000021
     3  O    0.001523  -0.000702  -0.000037  -0.000139   0.000036  -0.000046
     4  O    0.000217  -0.000009  -0.000002  -0.000003  -0.000002   0.000027
     5  Si  -0.000225   0.000159  -0.000003   0.000027  -0.000005   0.000073
     6  Si   0.000030   0.000145   0.000021   0.000008   0.000003  -0.000114
     7  C   -0.209839   0.000927   0.005198   0.003389   0.008882  -0.003630
     8  C    0.000927   0.072479  -0.001374  -0.001798   0.013063   0.005600
     9  H    0.005198  -0.001374   0.007815  -0.000753   0.000424  -0.000034
    10  H    0.003389  -0.001798  -0.000753   0.012439   0.001240  -0.000043
    11  C    0.008882   0.013063   0.000424   0.001240  -0.080112   0.001118
    12  H   -0.003630   0.005600  -0.000034  -0.000043   0.001118  -0.000718
    13  H    0.005549  -0.010073  -0.000057  -0.000203   0.002963  -0.000741
    14  C    0.012286  -0.041536  -0.000029  -0.000053  -0.078267  -0.001639
    15  H    0.003084  -0.019297   0.000133  -0.000109   0.020951  -0.004138
    16  H   -0.005446   0.017571  -0.000186   0.000185   0.004489   0.000787
    17  H   -0.000058   0.000791   0.000015   0.000003  -0.002798   0.000049
    18  H    0.001413  -0.001838  -0.000231  -0.000013  -0.000026   0.000963
    19  F   -0.000035   0.000031   0.000000   0.000001  -0.000007   0.000005
    20  F    0.000001  -0.000001   0.000000   0.000000   0.000000   0.000000
    21  F    0.000001  -0.000001   0.000000   0.000000   0.000000   0.000000
    22  F   -0.000025   0.000004   0.000001   0.000000  -0.000002   0.000000
              13         14         15         16         17         18
     1  Cr   0.000358   0.000877  -0.000092  -0.000010   0.000020  -0.000141
     2  O    0.000003  -0.000011  -0.000003   0.000000   0.000000   0.000003
     3  O    0.000140  -0.000007  -0.000003   0.000000   0.000000   0.000000
     4  O    0.000008   0.000000   0.000000   0.000000   0.000000   0.000000
     5  Si  -0.000072  -0.000013  -0.000014   0.000009   0.000000   0.000001
     6  Si   0.000056   0.000042   0.000030  -0.000006   0.000000  -0.000011
     7  C    0.005549   0.012286   0.003084  -0.005446  -0.000058   0.001413
     8  C   -0.010073  -0.041536  -0.019297   0.017571   0.000791  -0.001838
     9  H   -0.000057  -0.000029   0.000133  -0.000186   0.000015  -0.000231
    10  H   -0.000203  -0.000053  -0.000109   0.000185   0.000003  -0.000013
    11  C    0.002963  -0.078267   0.020951   0.004489  -0.002798  -0.000026
    12  H   -0.000741  -0.001639  -0.004138   0.000787   0.000049   0.000963
    13  H   -0.001498   0.000987   0.003146  -0.001465  -0.000023  -0.000158
    14  C    0.000987   1.234723  -0.027842  -0.015597  -0.000013  -0.003809
    15  H    0.003146  -0.027842   0.105809  -0.015000  -0.001049  -0.001183
    16  H   -0.001465  -0.015597  -0.015000   0.030262   0.001370   0.000354
    17  H   -0.000023  -0.000013  -0.001049   0.001370  -0.038256   0.001237
    18  H   -0.000158  -0.003809  -0.001183   0.000354   0.001237  -0.037256
    19  F   -0.000031   0.000000  -0.000001   0.000000   0.000000   0.000000
    20  F    0.000000   0.000000   0.000000   0.000000   0.000000   0.000000
    21  F    0.000000   0.000000   0.000000   0.000000   0.000000   0.000000
    22  F    0.000000   0.000001   0.000001   0.000000   0.000000   0.000000
              19         20         21         22
     1  Cr   0.000343   0.000058   0.000065   0.000326
     2  O    0.000001  -0.000001  -0.000059  -0.000376
     3  O   -0.000390  -0.000030  -0.000001   0.000001
     4  O    0.000020   0.000038   0.000042   0.000025
     5  Si  -0.000835  -0.000027  -0.000016  -0.000004
     6  Si  -0.000007  -0.000017  -0.000068  -0.000845
     7  C   -0.000035   0.000001   0.000001  -0.000025
     8  C    0.000031  -0.000001  -0.000001   0.000004
     9  H    0.000000   0.000000   0.000000   0.000001
    10  H    0.000001   0.000000   0.000000   0.000000
    11  C   -0.000007   0.000000   0.000000  -0.000002
    12  H    0.000005   0.000000   0.000000   0.000000
    13  H   -0.000031   0.000000   0.000000   0.000000
    14  C    0.000000   0.000000   0.000000   0.000001
    15  H   -0.000001   0.000000   0.000000   0.000001
    16  H    0.000000   0.000000   0.000000   0.000000
    17  H    0.000000   0.000000   0.000000   0.000000
    18  H    0.000000   0.000000   0.000000   0.000000
    19  F    0.001450  -0.000007   0.000000   0.000000
    20  F   -0.000007  -0.000434   0.000000   0.000000
    21  F    0.000000   0.000000  -0.000340  -0.000008
    22  F    0.000000   0.000000  -0.000008   0.001403
 Mulliken charges and spin densities:
               1          2
     1  Cr   0.718400   3.160944
     2  O   -0.567360   0.014870
     3  O   -0.566996   0.014212
     4  O   -0.447509   0.000700
     5  Si   1.016703   0.007601
     6  Si   1.018359   0.007758
     7  C   -0.196162  -0.223192
     8  C   -0.307917   0.025504
     9  H    0.135242   0.009335
    10  H    0.120518   0.012536
    11  C   -0.174402  -0.110169
    12  H    0.127061  -0.001650
    13  H    0.137562  -0.001109
    14  C   -0.362037   1.080099
    15  H    0.150769   0.064422
    16  H    0.119952   0.017318
    17  H    0.145051  -0.038712
    18  H    0.143936  -0.040695
    19  F   -0.306776   0.000537
    20  F   -0.298601  -0.000421
    21  F   -0.299290  -0.000386
    22  F   -0.306502   0.000499
 Sum of Mulliken charges =   0.00000   4.00000
 Mulliken charges and spin densities with hydrogens summed into heavy atoms:
               1          2
     1  Cr   0.718400   3.160944
     2  O   -0.567360   0.014870
     3  O   -0.566996   0.014212
     4  O   -0.447509   0.000700
     5  Si   1.016703   0.007601
     6  Si   1.018359   0.007758
     7  C    0.059598  -0.201321
     8  C   -0.043294   0.022744
    11  C    0.096319  -0.028429
    14  C   -0.073051   1.000692
    19  F   -0.306776   0.000537
    20  F   -0.298601  -0.000421
    21  F   -0.299290  -0.000386
    22  F   -0.306502   0.000499
 APT charges:
               1
     1  Cr   1.634589
     2  O   -1.200681
     3  O   -1.211132
     4  O   -1.130919
     5  Si   2.305659
     6  Si   2.301423
     7  C   -0.058802
     8  C   -0.000200
     9  H   -0.053672
    10  H   -0.066144
    11  C    0.120810
    12  H   -0.005165
    13  H   -0.008542
    14  C   -0.078004
    15  H   -0.046268
    16  H   -0.027355
    17  H    0.022096
    18  H    0.025149
    19  F   -0.620644
    20  F   -0.642444
    21  F   -0.641581
    22  F   -0.618172
 Sum of APT charges =   0.00000
 APT charges with hydrogens summed into heavy atoms:
[...]
 048,-0.00171387,-0.02587821,0.00359910,0.05919670,0.00008344,0.0005472
 1,-0.00120833,-0.00015248,-0.00076093,-0.00004656,0.00041243,-0.000200
 74,0.00035353,0.00005141,-0.00003031,-0.00014677,0.00003050,0.00044546
 ,-0.00020704,-0.00042092,-0.00096543,0.00092739,0.00722762,0.00170768,
 -0.01140127,0.11449843,0.00499166,-0.23976313,-0.00019136,-0.00028962,
 0.00010497,-0.00067348,0.00278760,-0.00047041,0.00915379,-0.00188676,-
 0.01701452,-0.12540592,-0.00431297,0.26071659,-0.00096346,0.00060255,-
 0.00056883,0.00029287,0.00003287,0.00033720,0.00011862,-0.00094433,0.0
 0010900,0.00025997,-0.00055834,-0.00038727,0.00110273,0.00071229,0.000
 27714,-0.00117273,0.00031216,-0.00014186,-0.00305898,0.00107496,-0.000
 36895,-0.30108174,0.01167684,-0.05700832,0.00127148,0.00053231,-0.0002
 9572,0.00054766,0.00020208,-0.00032516,-0.00630642,0.00056077,-0.00036
 679,-0.01503934,0.00061298,-0.00387873,0.32400338,0.00300463,-0.000402
 73,0.00175681,-0.00025117,0.00011057,-0.00049697,-0.00088515,0.0012432
 3,-0.00019550,-0.00046408,0.00005640,0.00029803,-0.00044937,-0.0017512
 2,-0.00181966,0.00064601,-0.00012450,0.00016612,0.02772781,-0.00413859
 ,0.00550657,0.01277799,-0.04667938,0.00336967,0.00131682,-0.00529657,0
 .00308286,-0.00080629,0.00085918,-0.00044517,-0.02791648,-0.00079818,-
 0.00523760,-0.00052884,-0.00090297,-0.00029122,-0.01263731,0.06039111,
 -0.00020586,-0.00012478,-0.00043255,-0.00043588,-0.00027709,0.00031923
 ,-0.00002189,0.00007446,-0.00045030,-0.00048762,0.00056189,0.00037714,
 -0.00004153,-0.00261136,-0.00007206,0.00102461,0.00023224,-0.00005562,
 -0.01498027,0.00171356,-0.00355171,-0.05573123,0.00330272,-0.06387555,
 -0.00104825,0.00325288,-0.00080112,-0.00015977,-0.00073310,0.00023438,
 -0.01848131,-0.00099071,-0.00417256,0.02745216,-0.00142593,0.00783171,
 0.06452447,-0.00247642,0.06617322,0.00003288,0.00033368,-0.00054230,-0
 .00045789,-0.00023843,0.00068507,0.00053797,-0.00011566,0.00031754,-0.
 00015007,-0.00003620,0.00022555,-0.00012519,0.00009991,-0.00051184,0.0
 0045045,0.00041791,-0.00049833,0.00028198,0.00070958,0.00021240,-0.012
 19686,-0.00738376,-0.00786516,-0.00007383,-0.00002310,-0.00023123,-0.0
 0018018,-0.00006295,0.00000903,-0.23158768,-0.01307772,-0.02202209,0.0
 0137808,0.00135381,0.00105394,0.00056215,-0.00017562,0.00026972,0.5510
 6446,-0.00006609,0.00075551,0.00087433,0.00030166,0.00019739,-0.000887
 16,-0.00061625,-0.00020874,-0.00057411,0.00006258,0.00011616,-0.000418
 09,0.00053136,-0.00006870,0.00097478,-0.00029436,-0.00059073,0.0009977
 5,-0.00106474,-0.00039969,-0.00043851,-0.02694445,-0.00164711,-0.00607
 290,-0.00020268,-0.00056560,-0.00013338,0.00009121,0.00010569,0.000138
 13,-0.01052710,-0.05513962,-0.02093415,-0.00014677,0.00066828,0.000650
 27,-0.00144756,-0.00402530,-0.00282450,0.01290857,0.20164752,-0.000514
 15,0.00024564,-0.00031515,0.00019209,-0.00002837,0.00027158,0.00038013
 ,-0.00035564,0.00024033,0.00024068,-0.00018373,-0.00002856,-0.00007795
 ,0.00068782,0.00006764,-0.00051058,0.00017526,-0.00028498,0.00016004,0
 .00110151,0.00046224,-0.02383091,-0.00299014,-0.00700985,0.00032459,-0
 .00039759,0.00035285,0.00001508,-0.00028788,-0.00000083,-0.02213548,-0
 .02117194,-0.08274081,-0.00132248,0.00073917,0.00080501,-0.00144758,-0
 .00429275,-0.00168598,-0.01715690,0.24689100,0.50234207,0.00013606,-0.
 00035304,0.00016108,0.00011582,0.00005782,-0.00023026,-0.00031610,0.00
 017166,-0.00012058,-0.00009582,0.00003773,-0.00001156,0.00020143,-0.00
 028241,0.00005955,0.00009630,-0.00002240,0.00013764,0.00045410,-0.0018
 1779,-0.00078577,0.00235404,-0.00674200,0.00356960,0.00000239,-0.00024
 787,0.00001706,0.00001653,0.00024794,-0.00013885,-0.06363476,0.0676562
 1,-0.04066967,-0.00013580,0.00047240,-0.00003992,0.00030306,-0.0001925
 6,0.00045836,-0.01954947,0.02083151,-0.01637922,0.07605094,0.00047407,
 -0.00070138,0.00122011,0.00044606,0.00041565,-0.00132997,-0.00117358,0
 .00048298,-0.00070373,-0.00014058,0.00036662,-0.00026620,0.00053696,-0
 .00102002,0.00079351,0.00020737,-0.00092297,0.00098400,-0.00140366,-0.
 00414706,-0.00355251,0.00691600,-0.02435197,0.01317360,-0.00003726,0.0
 0029997,-0.00000433,-0.00004909,0.00026575,-0.00015589,0.05466060,-0.1
 9832655,0.09802578,0.00065530,0.00075655,-0.00001476,-0.00041761,0.000
 69870,0.00063610,0.00459750,0.00531511,-0.00122226,-0.06581851,0.22159
 776,-0.00007452,-0.00054203,0.00029484,0.00019165,0.00022183,-0.000352
 66,-0.00020226,0.00014567,-0.00012918,0.00007728,0.00013000,-0.0000453
 2,-0.00010228,-0.00022379,0.00017615,-0.00004436,-0.00041732,0.0001414
 3,-0.00075783,-0.00277030,-0.00083324,0.00462914,-0.01695080,0.0074689
 2,-0.00007162,0.00007889,-0.00005857,-0.00007322,-0.00015005,0.0001427
 9,-0.03373499,0.10223369,-0.10724512,0.00040336,0.00046313,0.00063903,
 0.00031779,0.00066240,0.00079045,-0.00677947,0.00187472,-0.00176205,0.
 04494923,-0.10839305,0.11661963,0.00006800,0.00014773,0.00002405,0.000
 05322,-0.00009173,-0.00007675,-0.00008980,0.00003659,-0.00002872,-0.00
 003520,-0.00001823,-0.00003569,0.00013383,-0.00008873,-0.00000875,-0.0
 0008535,0.00004574,0.00018003,-0.00003722,0.00057072,-0.00032690,0.004
 25392,-0.00002148,-0.00799485,-0.00002848,-0.00008958,0.00008719,-0.00
 001229,0.00032958,0.00019557,-0.11232550,-0.00351698,0.11312329,0.0002
 6246,-0.00185833,-0.00111069,0.00036855,0.00049116,-0.00009965,-0.0205
 1520,0.00324807,0.02777752,0.00526580,-0.00002074,-0.00814004,0.126465
 28,-0.00003517,0.00044636,-0.00065939,-0.00011929,-0.00045027,0.000408
 06,0.00025578,-0.00018500,0.00027371,-0.00012297,-0.00019038,0.0000056
 5,0.00013555,0.00035824,-0.00027780,-0.00002313,0.00061660,0.00013684,
 0.00075122,0.00196038,-0.00060163,0.01385301,-0.00160885,-0.02421178,0
 .00008861,-0.00009829,0.00008207,-0.00029281,-0.00022094,0.00057191,-0
 .00415674,-0.04784496,0.00072784,-0.00134967,-0.00434742,-0.00321827,0
 .00003700,0.00083874,0.00079523,0.00151813,0.00015182,0.00133045,-0.01
 275117,-0.00053467,0.02327806,0.00222333,0.05088422,0.00016418,0.00041
 384,-0.00008296,-0.00002096,-0.00025334,0.00004841,-0.00023427,-0.0000
 5494,0.00004515,-0.00024611,-0.00015767,-0.00002222,0.00051316,0.00010
 918,-0.00011374,0.00012304,0.00055016,0.00031736,-0.00038981,0.0011192
 4,0.00146782,0.00780748,-0.00027633,-0.01567518,0.00006461,-0.00011013
 ,-0.00002590,0.00009028,-0.00081433,0.00043814,0.11232450,-0.00068454,
 -0.24015861,-0.00162917,-0.00300641,-0.00065424,-0.00039736,0.00010472
 ,-0.00007226,-0.00383797,0.00034650,0.00729419,0.00851683,0.00073671,-
 0.01555100,-0.12148092,0.00154215,0.26162869,-0.00015018,0.00016485,0.
 00022421,0.00023690,0.00005198,-0.00029247,-0.00014590,-0.00011768,-0.
 00011100,0.00010399,-0.00004753,-0.00016769,0.00013906,0.00023662,0.00
 037443,-0.00030252,-0.00009605,0.00030922,0.00016335,0.00023195,-0.000
 01658,-0.00548940,0.00154937,-0.00058382,0.00005382,-0.00019361,0.0001
 7351,0.00000253,-0.00004481,0.00003587,-0.00243667,-0.01614249,-0.0208
 4630,0.00004376,0.00005879,-0.00016546,-0.00029617,-0.00150917,-0.0009
 2470,-0.08888273,-0.05168489,-0.07672724,-0.00063590,0.00043432,-0.000
 48148,0.00119357,-0.00019982,0.00056759,0.08726725,-0.00007169,0.00007
 179,-0.00016943,-0.00001994,-0.00010205,0.00011546,0.00011187,-0.00007
 884,0.00009616,-0.00001522,-0.00006870,0.00001505,0.00002618,0.0001834
 0,-0.00004847,0.00001760,0.00020676,-0.00003201,-0.00017902,0.00009489
 ,-0.00001134,-0.00075536,-0.00036550,-0.00103061,0.00009053,0.00007274
 ,-0.00006890,-0.00009711,-0.00005399,0.00002831,0.00144134,0.00371643,
 0.00167340,0.00009009,0.00006696,0.00018830,-0.00009288,-0.00010117,0.
 00000763,-0.05353267,-0.09940727,-0.14357056,-0.00048284,-0.00109510,-
 0.00057071,0.00012207,-0.00013927,-0.00025697,0.05743641,0.09744725,0.
 00013663,0.00016754,0.00010813,-0.00001882,-0.00005843,-0.00013311,-0.
 00017918,-0.00000715,-0.00010685,-0.00007158,-0.00000443,-0.00007087,0
 .00018776,-0.00000272,0.00017404,0.00010058,0.00009572,0.00026818,0.00
 003861,0.00015409,-0.00000473,-0.00051821,0.00105200,0.00091224,0.0000
 7643,0.00008124,-0.00011356,-0.00004498,-0.00003749,0.00002877,0.00292
 894,-0.00269672,0.00001936,0.00013678,0.00021051,0.00034338,-0.0000169
 1,-0.00032100,0.00009747,-0.07763227,-0.13848514,-0.23050089,0.0001648
 8,0.00036303,0.00030915,-0.00076613,0.00048098,0.00094825,0.08385561,0
 .14816468,0.23724271,-0.00016440,-0.00016050,0.00007836,0.00013901,0.0
 0012375,-0.00010016,0.00006324,0.00000899,-0.00000560,0.00014694,0.000
 02731,-0.00004112,-0.00016235,0.00004178,0.00008168,-0.00024475,-0.000
 28187,-0.00001594,0.00009728,-0.00027650,-0.00011635,0.00127755,0.0010
 5833,0.00129563,-0.00002183,-0.00026918,0.00022485,0.00009841,0.000187
 36,-0.00007140,-0.01250158,0.00692304,0.02159675,-0.00006069,-0.000638
 93,-0.00096994,0.00040864,0.00017117,-0.00024475,-0.18036446,0.0552099
 0,0.13088002,-0.00054709,0.00033283,-0.00020768,-0.00498205,0.00017714
 ,-0.00168053,0.00909563,-0.00404774,-0.00823026,0.18753763,-0.00016495
 ,-0.00011107,-0.00017132,0.00006797,0.00000927,0.00025159,0.00018185,-
 0.00002918,0.00013315,0.00005541,-0.00006313,0.00009942,-0.00014599,0.
 00010572,-0.00019901,-0.00009500,0.00016354,-0.00036808,0.00006185,-0.
 00000284,0.00007234,-0.00028796,0.00066349,0.00160751,-0.00016930,-0.0
 0031532,0.00013759,0.00003680,0.00004343,-0.00000705,-0.00147260,0.002
 63289,-0.00114741,0.00011417,0.00026836,-0.00006559,0.00011157,-0.0000
 4344,-0.00004039,0.05297232,-0.04739359,-0.07633378,-0.00088523,-0.000
 02611,0.00063364,-0.00160463,0.00066485,0.00093566,0.00990304,-0.00024
 361,-0.00908551,-0.05876275,0.04384110,0.00012509,0.00002809,0.0001949
 1,-0.00001645,0.00008539,-0.00018191,-0.00010246,0.00004511,-0.0000959
 4,-0.00000027,0.00007321,-0.00003745,0.00002883,-0.00013547,0.00007898
 ,0.00000080,-0.00027093,0.00015799,-0.00001063,-0.00011135,-0.00003087
 ,-0.00020894,-0.00006518,0.00126333,0.00005965,0.00029846,-0.00013193,
 -0.00008310,0.00001118,-0.00003995,-0.00594576,0.00202427,0.00724977,0
 .00042398,0.00032989,-0.00009937,0.00003531,0.00021315,-0.00001124,0.1
 3399190,-0.08123854,-0.18758504,0.00037995,0.00019507,-0.00056825,-0.0
 0125483,-0.00052967,0.00035897,0.01506540,-0.00450757,-0.00928224,-0.1
 4251778,0.08331505,0.18879020,0.00261237,-0.00071440,0.00263836,-0.001
 32069,0.00074583,-0.00139969,-0.00066539,0.01115011,-0.00313907,-0.014
 04254,0.01173030,0.00987232,-0.09150919,0.11400561,0.02768038,0.008233
 53,-0.00076757,0.00031607,-0.00020732,0.00008622,-0.00004300,0.0004864
 7,-0.00030403,-0.00028549,-0.00002129,-0.00004779,-0.00016928,-0.00009
 481,-0.00014459,-0.00017916,-0.00033672,0.00036899,0.00013704,0.000284
 40,0.00013431,0.00006499,-0.00155065,-0.00015064,-0.00062118,0.0000438
 4,-0.00027625,-0.00010576,-0.00004178,-0.00010698,0.00004892,-0.000034
 63,-0.00004099,-0.00016641,-0.00009333,-0.00001787,-0.00006165,0.00004
 104,0.00003302,-0.00000081,0.09555473,-0.00740494,-0.00152823,-0.00300
 620,0.00135671,0.00040762,-0.00065520,0.01782028,-0.01102438,0.0070981
 7,0.00630445,0.00229035,-0.00143898,0.10652369,-0.24843432,-0.05820730
 ,-0.00342436,-0.00195548,0.00090475,-0.00035506,-0.00093750,-0.0000600
 7,0.00176216,0.00002957,0.00046376,-0.00025778,0.00074714,0.00019264,0
 .00036127,0.00050515,0.00008345,-0.00044808,0.00029288,-0.00028027,-0.
 00006230,-0.00006358,-0.00009678,-0.00034034,-0.00001884,0.00082582,-0
 .00000895,0.00007918,-0.00022626,0.00013217,0.00040629,0.00004889,0.00
 006692,-0.00006946,0.00004848,-0.00008477,-0.00005701,0.00001056,-0.00
 004285,-0.00004598,0.00004298,-0.12589991,0.27444051,0.00505547,-0.000
 21122,-0.00189274,0.00025377,-0.00130753,0.00498574,-0.01080704,0.0132
 8595,0.00061973,0.01850568,-0.00860970,-0.00123139,0.02335325,-0.05439
 638,-0.04367721,-0.00818623,0.00163455,-0.00425447,-0.00022224,-0.0001
 5501,0.00012901,0.00114166,-0.00024374,-0.00007381,-0.00019424,0.00012
 390,-0.00007887,0.00008101,-0.00000249,0.00016470,-0.00043133,0.000257
 98,0.00010944,-0.00041064,-0.00005365,0.00000043,-0.00053333,0.0003269
 1,-0.00054130,0.00007622,-0.00021988,-0.00010256,0.00004651,-0.0000260
 6,-0.00002208,0.00003673,0.00002098,0.00006890,-0.00011427,-0.00001257
 ,-0.00003504,-0.00003087,0.00002804,0.00000148,-0.03094285,0.06355832,
 0.04388999,0.00360963,-0.00084613,0.00262785,-0.00166560,0.00119985,-0
 .00153620,-0.00678495,-0.00313343,-0.01177709,-0.02031450,-0.00945093,
 -0.00054788,-0.17480350,-0.11464334,-0.09793044,0.00953278,-0.00343957
 ,-0.00112670,-0.00022312,0.00050095,-0.00019112,-0.00030053,-0.0001662
 1,-0.00024632,0.00004061,-0.00030291,-0.00019597,-0.00015859,-0.000253
 40,-0.00011739,0.00003596,0.00010682,0.00014563,0.00015675,0.00005888,
 0.00002381,-0.00014079,0.00002907,0.00013869,0.00005462,-0.00013351,0.
 00001523,-0.00003621,-0.00013093,0.00001330,-0.00001442,-0.00000212,-0
 .00009225,-0.00004851,-0.00000920,-0.00005345,0.00003135,0.00003949,-0
 .00000769,0.00529412,0.00280483,0.00064205,0.18891014,-0.00154420,-0.0
 0086323,0.00025021,-0.00060936,0.00132499,-0.00135951,0.00256109,0.005
 80189,0.00459537,-0.01245053,0.00334796,-0.00019872,-0.10866731,-0.121
 79225,-0.07744546,0.00434111,-0.00358831,-0.00010699,0.00004422,-0.000
 26369,-0.00010835,0.00036872,-0.00006070,0.00018606,-0.00008069,0.0001
 9469,0.00004310,0.00007722,0.00008283,-0.00001795,-0.00011473,0.000134
 23,-0.00007975,0.00002427,0.00000002,-0.00003751,-0.00004841,0.0001202
 7,0.00031054,0.00001271,-0.00000803,-0.00006532,0.00002685,0.00008988,
 0.00002088,0.00001297,-0.00003115,-0.00001947,-0.00004091,-0.00002623,
 -0.00001649,-0.00000234,-0.00000513,0.00001445,-0.01014559,-0.01608503
 ,-0.01358232,0.12770113,0.13070536,0.00778385,-0.00041515,-0.00093719,
 -0.00055954,-0.00115176,0.00442518,-0.02230316,-0.00207628,-0.01225172
 ,0.01076451,0.00355234,0.00488915,-0.09637284,-0.07975350,-0.09427462,
 -0.00423337,0.00170273,-0.00415058,-0.00038062,0.00055486,0.00002153,0
 .00006912,-0.00015785,-0.00046977,-0.00001816,-0.00035724,-0.00026173,
 -0.00013164,-0.00023789,0.00003403,-0.00005027,0.00004534,0.00024742,-
 0.00006893,-0.00008027,0.00004477,-0.00003526,0.00013398,0.00004799,0.
 00010038,-0.00016133,0.00001265,-0.00001402,-0.00014159,-0.00002573,0.
 00000082,0.00004398,0.00000077,-0.00006485,0.00000686,-0.00003906,-0.0
 0000647,0.00004138,-0.00001419,-0.00482809,-0.00867997,0.00141963,0.10
 892266,0.08707195,0.09998049,-0.00354392,0.00034048,-0.00047596,0.0079
 6211,0.00081776,-0.00560363,0.00193885,-0.00163149,0.00364661,-0.01436
 766,0.01047979,0.01706625,0.00642451,0.00348431,-0.00794478,-0.0433145
 8,0.03430759,0.05058987,0.00016684,-0.00001018,0.00006917,-0.00018718,
 0.00004016,0.00008742,0.00004233,0.00003635,0.00010033,0.00000866,-0.0
 0001054,-0.00004149,0.00008014,-0.00008344,-0.00001118,-0.00017472,0.0
 0003228,-0.00000581,0.00012767,-0.00008822,-0.00011193,-0.00006355,0.0
 0005662,0.00006289,-0.00000949,-0.00000827,0.00000637,0.00001490,0.000
 00822,-0.00000418,0.00004536,0.00000402,-0.00000002,0.00001980,0.00000
 147,-0.00000333,-0.00159673,0.00060037,0.00148960,-0.00101046,-0.00049
 249,0.00062396,0.04195726,0.00120467,-0.00090021,-0.00066627,0.0012042
 0,0.00594124,0.00406838,-0.00035006,0.00139670,-0.00148869,0.01008797,
 0.00260650,-0.00893288,-0.00375443,-0.00370901,0.00298586,0.03117224,-
 0.13596351,-0.13730887,-0.00009759,-0.00022114,-0.00006271,-0.00011626
 ,-0.00003188,0.00041085,-0.00006515,0.00006427,0.00003579,0.00007245,0
 .00016806,-0.00003038,-0.00000904,0.00010758,-0.00012761,0.00014482,0.
 00012021,0.00016738,-0.00002934,0.00000217,-0.00001782,-0.00004265,0.0
 0005142,-0.00001255,-0.00001146,0.00007333,0.00005043,-0.00000079,-0.0
 0005188,-0.00007850,0.00000245,-0.00003511,-0.00003019,0.00005061,-0.0
 0001250,0.00003766,0.00087057,-0.00001185,-0.00065324,0.00075781,0.000
 87733,0.00003529,-0.03942771,0.14605566,-0.00583066,-0.00091869,0.0061
 9784,0.00493609,-0.00461355,-0.02712164,0.00271253,-0.00013886,0.00087
 751,0.00587480,-0.00379692,-0.00036066,-0.00474821,-0.00075581,-0.0010
 6864,0.04899633,-0.14306973,-0.21852517,0.00026674,0.00075791,-0.00038
 758,-0.00026647,-0.00022764,-0.00045491,0.00016954,-0.00032415,-0.0001
 5562,-0.00020787,-0.00049958,-0.00026327,0.00012570,0.00010258,0.00023
 432,0.00010492,0.00013676,-0.00000186,-0.00000038,-0.00003691,0.000057
 86,0.00010484,-0.00019460,0.00005723,-0.00003870,-0.00019895,-0.000016
 18,-0.00002520,0.00000355,-0.00006936,-0.00006900,-0.00000129,-0.00006
 809,0.00001854,0.00006987,-0.00002015,0.00099119,-0.00045405,-0.000032
 37,0.00090854,0.00047473,0.00077758,-0.05507801,0.15776664,0.23861053,
 -0.00299393,0.00038664,-0.00166185,0.00652009,-0.00012077,-0.00200037,
 0.00182895,-0.00142943,0.00403441,-0.02255773,-0.01362657,0.00902873,0
 .00682941,0.00140517,-0.00965841,-0.10243305,-0.12574706,0.02265699,0.
 00004150,-0.00015357,0.00014053,0.00014249,0.00009927,0.00027863,0.000
 04900,0.00010168,0.00025650,0.00012094,0.00010811,0.00000612,-0.000032
 61,-0.00017227,-0.00003852,-0.00084495,0.00015058,0.00041445,0.0002435
 8,-0.00010977,-0.00027213,-0.00025935,0.00016319,0.00015999,0.00000597
 ,0.00004618,0.00003271,0.00008062,0.00004590,0.00000824,0.00013606,-0.
 00001860,-0.00003276,0.00009269,0.00000946,0.00004116,-0.00103544,0.00
 059653,0.00119112,-0.00216477,-0.00097374,0.00080191,0.00547985,-0.001
 66331,0.00105474,0.11075068,0.00362627,-0.00150442,-0.00670314,-0.0090
 6487,-0.00961828,0.01676927,-0.00143224,0.00042479,0.00027879,-0.00505
 147,0.00275582,0.00293932,0.00294636,-0.00203442,-0.00127008,-0.122251
 09,-0.24451757,0.03361676,0.00023382,-0.00086616,-0.00027612,-0.000703
 10,0.00015017,0.00164694,-0.00023996,0.00044524,0.00028166,0.00026061,
 0.00072416,-0.00001957,0.00003894,0.00017525,-0.00053139,0.00031364,0.
 00010130,0.00068547,0.00004795,-0.00003747,-0.00019087,-0.00022644,0.0
 0036629,-0.00003210,-0.00002700,0.00035718,0.00017585,0.00001638,-0.00
 014866,-0.00019402,0.00009196,-0.00008638,-0.00003509,0.00017046,-0.00
 010072,0.00014478,-0.00050835,0.00103298,0.00023715,-0.00068715,0.0000
 4429,0.00002412,-0.00845708,-0.01652736,-0.00408129,0.14090237,0.26886
 399,-0.00415529,-0.00051173,0.00393353,0.00613452,0.01725703,-0.007937
 85,0.00240086,-0.00051578,0.00172251,0.00023690,0.00130773,0.00701746,
 -0.00140652,0.00082175,-0.00272142,0.02688001,0.04118181,-0.04225273,0
 .00021440,-0.00003264,-0.00014212,-0.00088207,-0.00024931,0.00084331,0
 .00003840,-0.00009712,0.00000833,0.00000632,0.00002134,-0.00024350,0.0
 0037267,0.00033407,-0.00028227,0.00036974,0.00061738,-0.00075319,0.000
 17171,-0.00000802,-0.00020712,0.00003092,-0.00016523,0.00011088,-0.000
 03212,-0.00011869,0.00002698,-0.00007604,-0.00020289,-0.00019121,-0.00
 004098,-0.00001546,-0.00009726,0.00006299,0.00009293,0.00000294,0.0001
 9320,-0.00017273,0.00055278,0.00038473,0.00007056,0.00052342,-0.004462
 16,-0.01614856,0.00173263,-0.02644218,-0.04346644,0.03835388\\0.000005
 56,0.00000702,0.00000500,-0.00000676,-0.00000595,0.00000090,-0.0000011
 8,0.00001176,0.00000607,0.00000880,-0.00002389,-0.00000197,0.00001454,
 0.00000570,-0.00001137,0.00000356,0.00002176,0.00002700,0.00000356,0.0
 0000487,0.00001199,-0.00001142,-0.00001574,-0.00002914,-0.00000552,0.0
 0000262,0.00000026,-0.00001104,0.00000343,0.00000041,-0.00000573,0.000
 02174,0.00002483,-0.00000014,-0.00000191,0.00000616,0.00000223,0.00000
 070,-0.00000441,-0.00000513,-0.00000442,-0.00000332,-0.00000146,-0.000
 00476,-0.00000677,-0.00000847,-0.00000037,-0.00000930,-0.00001018,0.00
 000685,0.00000678,-0.00000557,0.00000124,0.00000421,0.00004820,-0.0006
 7948,-0.00011712,-0.00022866,0.00029534,-0.00004016,-0.00029938,0.0004
 9999,0.00065072,0.00051422,-0.00014647,-0.00052076\\\@


 Everywhere is walking distance if you have the time.
                                    -- Steven Wright
 Job cpu time:       0 days  5 hours 11 minutes 47.7 seconds.
 File lengths (MBytes):  RWF=    488 Int=      0 D2E=      0 Chk=      8 Scr=      1
 Normal termination of Gaussian 09 at Wed Aug 23 17:32:28 2017.
18676.315u 31.446s 28:47.00 1083.2%	0+0k 0+1419032io 0pf+0w
