 Entering Gaussian System, Link 0=/sw/chem/g09/g09
 Initial command:
 /sw/chem/g09/l1.exe "/scratch_local/craigv/IIIFreqMinus1/Gau-7318.inp" -scrdir="/scratch_local/craigv/IIIFreqMinus1/"
 Entering Link 1 = /sw/chem/g09/l1.exe PID=      7319.
  
 Copyright (c) 1988,1990,1992,1993,1995,1998,2003,2009,2013,
            Gaussian, Inc.  All Rights Reserved.
  
 This is part of the Gaussian(R) 09 program.  It is based on
 the Gaussian(R) 03 system (copyright 2003, Gaussian, Inc.),
 the Gaussian(R) 98 system (copyright 1998, Gaussian, Inc.),
 the Gaussian(R) 94 system (copyright 1995, Gaussian, Inc.),
 the Gaussian 92(TM) system (copyright 1992, Gaussian, Inc.),
 the Gaussian 90(TM) system (copyright 1990, Gaussian, Inc.),
 the Gaussian 88(TM) system (copyright 1988, Gaussian, Inc.),
 the Gaussian 86(TM) system (copyright 1986, Carnegie Mellon
 University), and the Gaussian 82(TM) system (copyright 1983,
 Carnegie Mellon University). Gaussian is a federally registered
 trademark of Gaussian, Inc.
  
 This software contains proprietary and confidential information,
 including trade secrets, belonging to Gaussian, Inc.
  
 This software is provided under written license and may be
 used, copied, transmitted, or stored only in accord with that
 written license.
  
 The following legend is applicable only to US Government
 contracts under FAR:
  
                    RESTRICTED RIGHTS LEGEND
  
 Use, reproduction and disclosure by the US Government is
 subject to restrictions as set forth in subparagraphs (a)
 and (c) of the Commercial Computer Software - Restricted
 Rights clause in FAR 52.227-19.
  
 Gaussian, Inc.
 340 Quinnipiac St., Bldg. 40, Wallingford CT 06492
  
  
 ---------------------------------------------------------------
 Warning -- This program may not be used in any manner that
 competes with the business of Gaussian, Inc. or will provide
 assistance to any competitor of Gaussian, Inc.  The licensee
 of this program is prohibited from giving any competitor of
 Gaussian, Inc. access to this program.  By using this program,
 the user acknowledges that Gaussian, Inc. is engaged in the
 business of creating and licensing software in the field of
 computational chemistry and represents and warrants to the
 licensee that it is not a competitor of Gaussian, Inc. and that
 it will not use this program in any manner prohibited above.
 ---------------------------------------------------------------
  

 Cite this work as:
 Gaussian 09, Revision D.01,
 M. J. Frisch, G. W. Trucks, H. B. Schlegel, G. E. Scuseria, 
 M. A. Robb, J. R. Cheeseman, G. Scalmani, V. Barone, B. Mennucci, 
 G. A. Petersson, H. Nakatsuji, M. Caricato, X. Li, H. P. Hratchian, 
 A. F. Izmaylov, J. Bloino, G. Zheng, J. L. Sonnenberg, M. Hada, 
 M. Ehara, K. Toyota, R. Fukuda, J. Hasegawa, M. Ishida, T. Nakajima, 
 Y. Honda, O. Kitao, H. Nakai, T. Vreven, J. A. Montgomery, Jr., 
 J. E. Peralta, F. Ogliaro, M. Bearpark, J. J. Heyd, E. Brothers, 
 K. N. Kudin, V. N. Staroverov, T. Keith, R. Kobayashi, J. Normand, 
 K. Raghavachari, A. Rendell, J. C. Burant, S. S. Iyengar, J. Tomasi, 
 M. Cossi, N. Rega, J. M. Millam, M. Klene, J. E. Knox, J. B. Cross, 
 V. Bakken, C. Adamo, J. Jaramillo, R. Gomperts, R. E. Stratmann, 
 O. Yazyev, A. J. Austin, R. Cammi, C. Pomelli, J. W. Ochterski, 
 R. L. Martin, K. Morokuma, V. G. Zakrzewski, G. A. Voth, 
 P. Salvador, J. J. Dannenberg, S. Dapprich, A. D. Daniels, 
 O. Farkas, J. B. Foresman, J. V. Ortiz, J. Cioslowski, 
 and D. J. Fox, Gaussian, Inc., Wallingford CT, 2013.
 
 ******************************************
 Gaussian 09:  ES64L-G09RevD.01 24-Apr-2013
                17-Jul-2017 
 ******************************************
 %nprocshared=12
 Will use up to   12 processors via shared memory.
 %chk=\home\craigv\homolysis\Monoi\III\minus\IIIminus1freq.chk
 ----------------------------------------------------------------------
 #p freq temp=373.15 wb97xd/gen nosymm scf=maxcycles=1000 punch=derivat
 ives
 ----------------------------------------------------------------------
 1/10=4,30=1,38=1,112=373150/1,3;
 2/12=2,15=1,17=6,18=5,40=1/2;
 3/5=7,11=2,16=1,25=1,30=1,71=2,74=-58,140=1/1,2,3;
 4//1;
 5/5=2,7=1000,38=5,98=1/2;
 8/6=4,10=90,11=11/1;
 11/6=1,8=1,9=11,15=111,16=1,31=1/1,2,10;
 10/6=1,31=1/2;
 6/7=2,8=2,9=2,10=2,18=1,28=1/1;
 7/8=1,10=1,25=1,30=1/1,2,3,16;
 1/10=4,30=1/3;
 99/10=4/99;
 Leave Link    1 at Mon Jul 17 10:19:50 2017, MaxMem=           0 cpu:         0.9
 (Enter /sw/chem/g09/l101.exe)
 -------------------
 Title Card Required
 -------------------
 Symbolic Z-matrix:
 Charge =  0 Multiplicity = 2
 H                    -2.83535   3.9644    2.81558 
 H                     3.64694   3.7889    6.6136 
 H                     2.10124   3.11337   7.14015 
 H                     2.29892   4.86304   7.00267 
 H                     3.78508   5.32711   3.91236 
 H                     2.29736   6.24452   4.12536 
 H                     2.5066    5.19353   2.71388 
 H                     3.72188   2.12951   4.10721 
 H                     2.44162   2.23794   2.89421 
 H                     2.16386   1.34868   4.40307 
 H                    -3.24085   5.60486   5.97486 
 H                    -2.38644   4.29771   6.80456 
 H                    -3.02996   4.03089   5.19232 
 H                    -0.57414   7.11856   3.34384 
 H                    -2.18193   6.36747   3.11951 
 H                    -0.65356   7.39341   6.48002 
 H                     0.9208    6.86529   5.88369 
 H                     0.16766   6.02323   7.24401 
 C                     0.12462   3.84577   4.56076 
 H                    -0.35405   2.89757   4.82275 
 Si                    1.98682   3.81833   4.75054 
 Si                   -0.90871   5.35343   5.09828 
 C                     2.56243   3.90681   6.54741 
 C                     2.70023   5.28699   3.78751 
 C                     2.64288   2.22936   3.96854 
 C                    -2.54811   4.77282   5.83457 
 C                    -1.13547   6.18009   3.38504 
 C                    -0.02973   6.51736   6.29088 
 Cr                   -0.27205   4.52124   2.767 
 O                     0.57258   4.13011   1.16156 
 O                    -2.06659   3.59784   2.37134 
 O                    -1.09347   2.23121   0.33512 
 Si                   -2.33338   2.26079   1.3668 
 Si                    0.37303   3.01002   0.02537 
 O(Iso=10000000)       1.52866   1.82419  -0.01749 
 O(Iso=10000000)       0.3296    3.6773   -1.48163 
 O(Iso=10000000)      -3.79819   2.42209   0.6238 
 O(Iso=10000000)      -2.43818   0.96278   2.36828 
 H(Iso=10000000)       1.47202   1.11301   0.62641 
 H(Iso=10000000)       0.72101   3.16321  -2.19328 
 H(Iso=10000000)      -3.8138    2.94951  -0.1795 
 H(Iso=10000000)      -3.05842   0.28782   2.07922 
 
 NAtoms=     42 NQM=       42 NQMF=       0 NMMI=      0 NMMIF=      0
                NMic=       0 NMicF=      0.
                    Isotopes and Nuclear Properties:
 (Nuclear quadrupole moments (NQMom) in fm**2, nuclear magnetic moments (NMagM)
  in nuclear magnetons)

  Atom         1           2           3           4           5           6           7           8           9          10
 IAtWgt=           1           1           1           1           1           1           1           1           1           1
 AtmWgt=   1.0078250   1.0078250   1.0078250   1.0078250   1.0078250   1.0078250   1.0078250   1.0078250   1.0078250   1.0078250
 NucSpn=           1           1           1           1           1           1           1           1           1           1
 AtZEff=   0.0000000   0.0000000   0.0000000   0.0000000   0.0000000   0.0000000   0.0000000   0.0000000   0.0000000   0.0000000
 NQMom=    0.0000000   0.0000000   0.0000000   0.0000000   0.0000000   0.0000000   0.0000000   0.0000000   0.0000000   0.0000000
 NMagM=    2.7928460   2.7928460   2.7928460   2.7928460   2.7928460   2.7928460   2.7928460   2.7928460   2.7928460   2.7928460
 AtZNuc=   1.0000000   1.0000000   1.0000000   1.0000000   1.0000000   1.0000000   1.0000000   1.0000000   1.0000000   1.0000000

  Atom        11          12          13          14          15          16          17          18          19          20
 IAtWgt=           1           1           1           1           1           1           1           1          12           1
 AtmWgt=   1.0078250   1.0078250   1.0078250   1.0078250   1.0078250   1.0078250   1.0078250   1.0078250  12.0000000   1.0078250
 NucSpn=           1           1           1           1           1           1           1           1           0           1
 AtZEff=   0.0000000   0.0000000   0.0000000   0.0000000   0.0000000   0.0000000   0.0000000   0.0000000   0.0000000   0.0000000
 NQMom=    0.0000000   0.0000000   0.0000000   0.0000000   0.0000000   0.0000000   0.0000000   0.0000000   0.0000000   0.0000000
 NMagM=    2.7928460   2.7928460   2.7928460   2.7928460   2.7928460   2.7928460   2.7928460   2.7928460   0.0000000   2.7928460
 AtZNuc=   1.0000000   1.0000000   1.0000000   1.0000000   1.0000000   1.0000000   1.0000000   1.0000000   6.0000000   1.0000000

  Atom        21          22          23          24          25          26          27          28          29          30
 IAtWgt=          28          28          12          12          12          12          12          12          52          16
 AtmWgt=  27.9769284  27.9769284  12.0000000  12.0000000  12.0000000  12.0000000  12.0000000  12.0000000  51.9405097  15.9949146
 NucSpn=           0           0           0           0           0           0           0           0           0           0
 AtZEff=   0.0000000   0.0000000   0.0000000   0.0000000   0.0000000   0.0000000   0.0000000   0.0000000   0.0000000   0.0000000
 NQMom=    0.0000000   0.0000000   0.0000000   0.0000000   0.0000000   0.0000000   0.0000000   0.0000000   0.0000000   0.0000000
 NMagM=    0.0000000   0.0000000   0.0000000   0.0000000   0.0000000   0.0000000   0.0000000   0.0000000   0.0000000   0.0000000
 AtZNuc=  14.0000000  14.0000000   6.0000000   6.0000000   6.0000000   6.0000000   6.0000000   6.0000000  24.0000000   8.0000000

  Atom        31          32          33          34          35          36          37          38          39          40
 IAtWgt=          16          16          28          28    10000000    10000000    10000000    10000000    10000000    10000000
 AtmWgt=  15.9949146  15.9949146  27.9769284  27.9769284************************************************************************
 NucSpn=           0           0           0           0           0           0           0           0           0           0
 AtZEff=   0.0000000   0.0000000   0.0000000   0.0000000   0.0000000   0.0000000   0.0000000   0.0000000   0.0000000   0.0000000
 NQMom=    0.0000000   0.0000000   0.0000000   0.0000000   0.0000000   0.0000000   0.0000000   0.0000000   0.0000000   0.0000000
 NMagM=    0.0000000   0.0000000   0.0000000   0.0000000   0.0000000   0.0000000   0.0000000   0.0000000   0.0000000   0.0000000
 AtZNuc=   8.0000000   8.0000000  14.0000000  14.0000000   8.0000000   8.0000000   8.0000000   8.0000000   1.0000000   1.0000000

  Atom        41          42
 IAtWgt=    10000000    10000000
 AtmWgt=************************
 NucSpn=           0           0
 AtZEff=   0.0000000   0.0000000
 NQMom=    0.0000000   0.0000000
 NMagM=    0.0000000   0.0000000
 AtZNuc=   1.0000000   1.0000000
 Leave Link  101 at Mon Jul 17 10:19:51 2017, MaxMem=    33554432 cpu:         0.2
 (Enter /sw/chem/g09/l103.exe)

 GradGradGradGradGradGradGradGradGradGradGradGradGradGradGradGradGradGrad
 Berny optimization.
 Initialization pass.
 Trust Radius=3.00D-01 FncErr=1.00D-07 GrdErr=1.00D-07
 Number of steps in this run=      2 maximum allowed number of steps=      2.
 GradGradGradGradGradGradGradGradGradGradGradGradGradGradGradGradGradGrad

 Leave Link  103 at Mon Jul 17 10:19:51 2017, MaxMem=    33554432 cpu:         0.1
 (Enter /sw/chem/g09/l202.exe)
                          Input orientation:                          
 ---------------------------------------------------------------------
 Center     Atomic      Atomic             Coordinates (Angstroms)
 Number     Number       Type             X           Y           Z
 ---------------------------------------------------------------------
      1          1           0       -2.835348    3.964397    2.815579
      2          1           0        3.646940    3.788898    6.613598
      3          1           0        2.101239    3.113369    7.140149
      4          1           0        2.298918    4.863042    7.002674
      5          1           0        3.785084    5.327112    3.912364
      6          1           0        2.297364    6.244518    4.125356
      7          1           0        2.506600    5.193525    2.713883
      8          1           0        3.721882    2.129512    4.107212
      9          1           0        2.441622    2.237938    2.894209
     10          1           0        2.163865    1.348683    4.403074
     11          1           0       -3.240848    5.604864    5.974858
     12          1           0       -2.386441    4.297713    6.804562
     13          1           0       -3.029956    4.030891    5.192322
     14          1           0       -0.574139    7.118558    3.343844
     15          1           0       -2.181929    6.367469    3.119512
     16          1           0       -0.653555    7.393414    6.480022
     17          1           0        0.920797    6.865285    5.883692
     18          1           0        0.167661    6.023229    7.244013
     19          6           0        0.124624    3.845774    4.560756
     20          1           0       -0.354049    2.897565    4.822748
     21         14           0        1.986816    3.818331    4.750535
     22         14           0       -0.908707    5.353428    5.098280
     23          6           0        2.562428    3.906809    6.547413
     24          6           0        2.700227    5.286994    3.787505
     25          6           0        2.642878    2.229356    3.968541
     26          6           0       -2.548106    4.772817    5.834569
     27          6           0       -1.135470    6.180095    3.385037
     28          6           0       -0.029732    6.517365    6.290879
     29         24           0       -0.272045    4.521243    2.766999
     30          8           0        0.572578    4.130113    1.161564
     31          8           0       -2.066588    3.597842    2.371344
     32          8           0       -1.093475    2.231209    0.335123
     33         14           0       -2.333375    2.260788    1.366798
     34         14           0        0.373029    3.010023    0.025366
     35          8           0        1.528661    1.824193   -0.017492
     36          8           0        0.329600    3.677299   -1.481629
     37          8           0       -3.798190    2.422088    0.623798
     38          8           0       -2.438175    0.962776    2.368284
     39          1           0        1.472018    1.113006    0.626407
     40          1           0        0.721006    3.163209   -2.193283
     41          1           0       -3.813801    2.949512   -0.179499
     42          1           0       -3.058420    0.287818    2.079215
 ---------------------------------------------------------------------
                    Distance matrix (angstroms):
                    1          2          3          4          5
     1  H    0.000000
     2  H    7.515039   0.000000
     3  H    6.617858   1.767141   0.000000
     4  H    6.685807   1.767011   1.766163   0.000000
     5  H    6.847631   3.111567   4.260820   3.460356   0.000000
     6  H    5.767079   3.747369   4.351038   3.191777   1.760770
     7  H    5.482473   4.298968   4.907463   4.306516   1.757476
     8  H    6.930540   3.006850   3.576753   4.228559   3.204154
     9  H    5.552770   4.206201   4.348591   4.877604   3.519165
    10  H    5.861248   3.611174   3.257241   4.373429   4.324008
    11  H    3.582821   7.151737   6.008606   5.682932   7.327670
    12  H    4.027977   6.057809   4.653446   4.723498   6.892909
    13  H    2.385624   6.830778   5.564624   5.689178   7.054307
    14  H    3.916741   6.292490   6.132790   5.169995   4.747138
    15  H    2.508802   7.268657   6.715669   6.117208   6.108699
    16  H    5.472341   5.612899   5.132586   3.923397   5.528471
    17  H    5.651291   4.174778   4.129044   2.675877   3.802138
    18  H    5.733052   4.182707   3.495253   2.438552   4.966912
    19  C    3.438190   4.077267   3.331170   3.424230   4.001717
    20  H    3.365071   4.473201   3.383099   3.956439   4.885071
    21  Si   5.197947   2.495572   2.494057   2.502191   2.492533
    22  Si   3.294249   5.049541   4.271635   3.762453   4.841360
    23  C    6.562460   1.092909   1.092510   1.091367   3.233517
    24  C    5.773776   3.335770   4.040254   3.267736   1.092755
    25  C    5.860943   3.230579   3.336757   4.032440   3.302103
    26  C    3.138527   6.320884   5.106341   4.986607   6.641642
    27  C    2.850120   6.246029   5.829405   5.159161   5.021703
    28  C    5.144593   4.589836   4.104813   2.943815   4.650468
    29  Cr   2.623540   5.539955   5.170979   4.966651   4.292037
    30  O    3.791726   6.268397   6.254123   6.134819   4.395441
    31  O    0.960572   7.118822   6.351929   6.489036   6.293424
    32  O    3.491522   8.019799   7.569200   7.930392   6.795705
    33  Si   2.291992   8.101123   7.329685   7.745512   7.301903
    34  Si   4.357729   7.397969   7.322399   7.471650   5.667431
    35  O    5.625952   7.233155   7.295317   7.688344   5.727622
    36  O    5.344653   8.749280   8.819965   8.790199   6.614939
    37  O    2.847751   9.652763   8.817254   9.155492   8.761271
    38  O    3.060645   7.939665   6.928349   7.689584   7.756324
    39  H    5.610375   6.909207   6.842968   7.443340   5.822927
    40  H    6.195019   9.301276   9.435067   9.483927   7.165890
    41  H    3.310265  10.124890   9.412321   9.623437   8.952060
    42  H    3.756225   8.819299   7.760082   8.595010   8.694163
                    6          7          8          9         10
     6  H    0.000000
     7  H    1.772180   0.000000
     8  H    4.354636   3.578610   0.000000
     9  H    4.193950   2.961796   1.766974   0.000000
    10  H    4.905522   4.213507   1.767667   1.773301   0.000000
    11  H    5.873807   6.620900   8.002861   7.288145   7.056664
    12  H    5.736395   6.440340   7.020570   6.545512   5.930363
    13  H    5.866762   6.176393   7.097889   6.199530   5.898553
    14  H    3.101651   3.686944   6.627904   5.754775   6.473800
    15  H    4.592484   4.850256   7.334222   6.203307   6.761780
    16  H    3.946180   5.386083   7.244539   7.001222   6.985008
    17  H    2.317765   3.918832   5.781825   5.715090   5.845541
    18  H    3.782939   5.165377   6.134577   6.198397   5.822984
    19  C    3.265631   3.301694   4.011424   3.275820   3.227821
    20  H    4.326481   4.231082   4.208932   3.459790   2.985809
    21  Si   2.524613   2.511829   2.505280   2.480007   2.500247
    22  Si   3.466917   4.168362   5.728718   5.078278   5.095291
    23  C    3.376611   4.044095   3.233837   4.018162   3.361704
    24  C    1.092380   1.094939   3.334019   3.187726   4.022052
    25  C    4.033051   3.221651   1.092451   1.093054   1.092638
    26  C    5.344707   5.955311   7.020226   6.322081   5.998045
    27  C    3.512346   3.832550   6.365739   5.345755   5.938396
    28  C    3.190503   4.580440   6.172217   5.996537   5.923761
    29  Cr   3.378857   2.859310   4.844378   3.548754   4.321520
    30  O    4.028605   2.698329   4.753668   3.174226   4.558063
    31  O    5.396807   4.855676   6.218972   4.737793   5.204169
    32  O    6.478449   5.233962   6.117733   4.364158   5.285579
    33  Si   6.702499   5.817297   6.647800   5.013392   5.502370
    34  Si   5.565514   4.067915   5.352717   3.620145   5.013130
    35  O    6.106830   4.446254   4.681519   3.079397   4.491213
    36  O    6.473097   4.963929   6.718509   5.067579   6.589136
    37  O    8.001728   7.197201   8.292844   6.642585   7.140114
    38  O    7.308176   6.516861   6.506262   5.071001   5.046590
    39  H    6.265481   4.698782   4.267455   2.710817   3.846740
    40  H    7.204483   5.602750   7.054787   5.449699   6.991872
    41  H    8.169160   7.304432   8.708318   7.006021   7.700332
    42  H    8.267611   7.445684   7.312804   5.892168   5.813606
                   11         12         13         14         15
    11  H    0.000000
    12  H    1.768351   0.000000
    13  H    1.770375   1.756310   0.000000
    14  H    4.040401   4.818524   4.356787   0.000000
    15  H    3.139407   4.231466   3.236555   1.788700   0.000000
    16  H    3.185622   3.562525   4.314164   3.149201   3.831647
    17  H    4.349283   4.286986   4.911235   2.958008   4.185143
    18  H    3.661109   3.113512   4.289942   4.118414   4.759263
    19  C    4.052220   3.397699   3.222502   3.560935   3.708951
    20  H    4.121945   3.165220   2.929418   4.477988   4.275791
    21  Si   5.658546   4.855328   5.040670   4.407808   5.151386
    22  Si   2.504095   2.491913   2.501529   2.511108   2.562205
    23  C    6.073650   4.970939   5.755556   5.515092   6.349352
    24  C    6.338922   5.996291   6.032106   3.777954   5.044709
    25  C    7.073726   6.133120   6.076530   5.885893   6.412768
    26  C    1.091730   1.092129   1.093213   3.950033   3.169942
    27  C    3.386839   4.098956   3.387393   1.094304   1.095760
    28  C    3.353177   3.277927   4.048546   3.056604   3.835621
    29  Cr   4.503153   4.563173   3.705227   2.677696   2.679640
    30  O    6.315450   6.373956   5.406950   3.874030   4.052978
    31  O    4.288629   4.499505   3.012229   3.945707   2.871218
    32  O    6.913709   6.913454   5.530027   5.762664   5.103548
    33  Si   5.765463   5.806992   4.272367   5.531867   4.467636
    34  Si   7.428981   7.431710   6.270559   5.365583   5.232016
    35  O    8.541074   8.245408   7.265856   6.614427   6.652115
    36  O    8.488981   8.742011   7.480192   5.995348   5.891968
    37  O    6.250963   6.611569   4.904064   6.312684   4.940336
    38  O    5.933013   5.550229   4.211737   6.505382   5.462665
    39  H    8.425783   7.949822   7.044814   6.902020   6.868499
    40  H    9.400877   9.586686   8.328850   6.926901   6.849825
    41  H    6.727204   7.254799   5.535364   6.347464   5.022839
    42  H    6.593959   6.233756   4.868556   7.377665   6.229977
                   16         17         18         19         20
    16  H    0.000000
    17  H    1.764402   0.000000
    18  H    1.770730   1.768261   0.000000
    19  C    4.107906   3.391386   3.455869   0.000000
    20  H    4.800929   4.300423   3.988042   1.094015   0.000000
    21  Si   4.769057   3.421165   3.793196   1.872039   2.516480
    22  Si   2.477066   2.499934   2.492262   1.905184   2.532751
    23  C    4.743786   3.447906   3.270993   3.145381   3.535376
    24  C    4.788999   3.170390   4.347802   3.051027   4.013689
    25  C    6.621292   5.303320   5.590071   3.050431   3.187122
    26  C    3.297493   4.051435   3.305367   3.102498   3.058470
    27  C    3.359065   3.307718   4.076083   2.901587   3.667783
    28  C    1.091967   1.091034   1.091604   3.186620   3.919635
    29  Cr   4.709719   4.078134   4.742674   1.957337   2.620908
    30  O    6.359130   5.468173   6.383105   3.440351   3.972667
    31  O    5.769252   5.651304   5.883645   3.107476   3.071247
    32  O    8.037517   7.504570   7.981393   4.684716   4.596690
    33  Si   7.437117   7.224497   7.413016   4.330740   4.033213
    34  Si   7.869598   7.034421   7.824989   4.618436   4.853469
    35  O    8.831533   7.784991   8.497863   5.197929   5.303268
    36  O    8.841040   8.047405   9.036949   6.048208   6.389095
    37  O    8.300492   8.347294   8.516069   5.737159   5.451547
    38  O    7.838645   7.647248   7.494751   4.436953   3.756512
    39  H    8.844569   7.812273   8.342922   4.976203   4.912072
    40  H    9.747321   8.887227   9.876662   6.814588   7.102887
    41  H    8.607243   8.632032   8.967068   6.227720   6.082356
    42  H    8.697124   8.577371   8.365266   5.380415   4.653104
                   21         22         23         24         25
    21  Si   0.000000
    22  Si   3.295679   0.000000
    23  C    1.888896   4.030071   0.000000
    24  C    1.895614   3.840176   3.088850   0.000000
    25  C    1.888590   4.863115   3.077483   3.063530   0.000000
    26  C    4.759379   1.888613   5.232177   5.656841   6.074337
    27  C    4.146225   1.915725   5.370559   3.958811   5.497702
    28  C    3.704580   1.884049   3.687832   3.902995   5.560856
    29  Cr   3.087224   2.555923   4.764798   3.234534   3.897849
    30  O    3.870141   4.380461   5.746019   3.572230   3.972171
    31  O    4.705236   3.443683   6.242019   5.251787   5.157796
    32  O    5.612754   5.698250   7.400392   5.970673   5.211724
    33  Si   5.704355   5.051540   7.315534   6.352550   5.615438
    34  Si   5.058151   5.733136   6.937924   4.975353   4.616306
    35  O    5.188504   6.675881   6.964477   5.276510   4.158617
    36  O    6.450281   6.902030   8.336889   5.997897   6.095256
    37  O    7.241944   6.079708   8.817657   7.774712   7.260290
    38  O    5.780126   5.391658   7.151117   6.864126   5.475596
    39  H    4.959056   6.606563   6.637216   5.378031   3.713086
    40  H    7.088587   7.785879   8.963456   6.648128   6.521790
    41  H    7.662065   6.486396   9.317943   7.977061   7.708019
    42  H    6.712293   6.276657   8.040884   7.814860   6.312204
                   26         27         28         29         30
    26  C    0.000000
    27  C    3.158509   0.000000
    28  C    3.097398   3.127351   0.000000
    29  Cr   3.828019   1.969585   4.057209   0.000000
    30  O    5.655857   3.473282   5.689606   1.855746   0.000000
    31  O    3.688679   2.926189   5.294823   2.056598   2.951623
    32  O    6.230540   4.989733   7.414426   3.439916   2.657927
    33  Si   5.130046   4.568286   6.904476   3.364417   3.461367
    34  Si   6.737011   4.859250   7.191684   3.196319   1.607908
    35  O    7.717579   6.135852   8.015610   4.274343   2.760713
    36  O    7.937764   5.665232   8.282933   4.373221   2.692684
    37  O    5.851561   5.370022   7.942819   4.629629   4.723363
    38  O    5.152051   5.472773   7.213932   4.184947   4.533523
    39  H    7.528650   6.331226   7.971737   4.386339   3.193481
    40  H    8.816141   6.608007   9.153960   5.237824   3.494558
    41  H    6.410572   5.506000   8.301478   4.867877   4.736305
    42  H    5.871824   6.334180   8.106684   5.114569   5.365581
                   31         32         33         34         35
    31  O    0.000000
    32  O    2.638339   0.000000
    33  Si   1.693517   1.613251   0.000000
    34  Si   3.435240   1.689122   3.112140   0.000000
    35  O    4.666710   2.676863   4.125796   1.656356   0.000000
    36  O    4.537999   2.723400   4.148672   1.648690   2.648669
    37  O    2.726676   2.726766   1.650379   4.254745   5.398525
    38  O    2.661139   2.747887   1.642800   4.193251   4.708477
    39  H    4.662719   2.813713   4.043093   2.273258   0.961042
    40  H    5.366135   3.248662   4.776796   2.250990   2.679428
    41  H    3.159096   2.860239   2.248786   4.192276   5.462096
    42  H    3.467756   3.267971   2.219423   4.837720   5.272375
                   36         37         38         39         40
    36  O    0.000000
    37  O    4.800732   0.000000
    38  O    5.463611   2.649993   0.000000
    39  H    3.510631   5.430359   4.283260   0.000000
    40  H    0.961217   5.376647   5.969106   3.566231   0.000000
    41  H    4.403747   0.961096   3.511505   5.653505   4.966434
    42  H    5.970500   2.687119   0.961162   4.828712   6.387971
                   41         42
    41  H    0.000000
    42  H    3.571695   0.000000
 Symmetry turned off by external request.
 Stoichiometry    C7H23CrO7Si4(2)
 Framework group  C1[X(C7H23CrO7Si4)]
 Deg. of freedom   120
 Full point group                 C1      NOp   1
 Rotational constants (GHZ):      0.0000026      0.0000011      0.0000008
 Leave Link  202 at Mon Jul 17 10:19:52 2017, MaxMem=    33554432 cpu:         1.3
 (Enter /sw/chem/g09/l301.exe)
 General basis read from cards:  (5D, 7F)
 Centers:      29
 def2TZVP
 ****
 Centers:       1      2      3      4      5      6      7      8      9     10
 Centers:      11     12     13     14     15     16     17     18     20     39
 Centers:      40     41     42     19     23     24     25     26     27     28
 Centers:      30     31     32     35     36     37     38     21     22     33
 Centers:      34
 TZVP
 ****
 Ernie: Thresh=  0.10000D-02 Tol=  0.10000D-05 Strict=F.
   537 basis functions,   964 primitive gaussians,   562 cartesian basis functions
   101 alpha electrons      100 beta electrons
       nuclear repulsion energy      2807.0938508129 Hartrees.
 IExCor= 4639 DFT=T Ex+Corr=wB97XD ExCW=0 ScaHFX=  1.000000
 ScaDFX=  1.000000  1.000000  1.000000  1.000000 ScalE2=  1.000000  1.000000
 IRadAn=      0 IRanWt=     -1 IRanGd=            0 ICorTp=0 IEmpDi=121
  HFx wShort=  0.000000 wLong=  0.200000 cFull=  0.222036 cShort=  0.000000 cLong=  0.777964
  DFx wShort=  0.000000 wLong=  0.200000 cFull=  0.000000 cShort=  0.000000 cLong=  1.000000
 NAtoms=   42 NActive=   42 NUniq=   42 SFac= 1.00D+00 NAtFMM=   60 NAOKFM=F Big=F
 Integral buffers will be    131072 words long.
 Raffenetti 2 integral format.
 Two-electron integral symmetry is turned off.
 R6Disp:  Grimme-D2 Dispersion energy=       -0.0375684558 Hartrees.
 Nuclear repulsion after empirical dispersion term =     2807.0562823571 Hartrees.
 Leave Link  301 at Mon Jul 17 10:19:52 2017, MaxMem=    33554432 cpu:         0.1
 (Enter /sw/chem/g09/l302.exe)
 NPDir=0 NMtPBC=     1 NCelOv=     1 NCel=       1 NClECP=     1 NCelD=      1
         NCelK=      1 NCelE2=     1 NClLst=     1 CellRange=     0.0.
 One-electron integrals computed using PRISM.
 PrsmSu:  requested number of processors reduced to:   3 ShMem   1 Linda.
 NBasis=   537 RedAO= T EigKep=  2.08D-04  NBF=   537
 NBsUse=   537 1.00D-06 EigRej= -1.00D+00 NBFU=   537
 Precomputing XC quadrature grid using
 IXCGrd= 4 IRadAn=           0 IRanWt=          -1 IRanGd=           0 AccXCQ= 0.00D+00.
 Generated NRdTot=       0 NPtTot=           0 NUsed=           0 NTot=          32
 NSgBfM=   540   540   540   540   540 MxSgAt=    42 MxSgA2=    42.
 Leave Link  302 at Mon Jul 17 10:19:59 2017, MaxMem=    33554432 cpu:        43.0
 (Enter /sw/chem/g09/l303.exe)
 DipDrv:  MaxL=1.
 Leave Link  303 at Mon Jul 17 10:20:01 2017, MaxMem=    33554432 cpu:         5.4
 (Enter /sw/chem/g09/l401.exe)
 ExpMin= 3.41D-02 ExpMax= 2.54D+05 ExpMxC= 2.46D+03 IAcc=3 IRadAn=         5 AccDes= 0.00D+00
 Harris functional with IExCor= 4639 and IRadAn=       5 diagonalized for initial guess.
 HarFok:  IExCor= 4639 AccDes= 0.00D+00 IRadAn=         5 IDoV= 1 UseB2=F ITyADJ=14
 ICtDFT=  3500011 ScaDFX=  1.000000  1.000000  1.000000  1.000000
 FoFCou: FMM=F IPFlag=           0 FMFlag=      100000 FMFlg1=           0
         NFxFlg=           0 DoJE=T BraDBF=F KetDBF=T FulRan=T
         wScrn=  0.000000 ICntrl=     500 IOpCl=  0 I1Cent=   200000004 NGrid=           0
         NMat0=    1 NMatS0=      1 NMatT0=    0 NMatD0=    1 NMtDS0=    0 NMtDT0=    0
 Symmetry not used in FoFCou.
 CoulSu:  requested number of processors reduced to:  11 ShMem   1 Linda.
 CoulSu:  requested number of processors reduced to:  11 ShMem   1 Linda.
 Harris En= -2942.76309603183    
 JPrj=0 DoOrth=F DoCkMO=F.
 Initial guess <Sx>= 0.0000 <Sy>= 0.0000 <Sz>= 0.5000 <S**2>= 0.7500 S= 0.5000
 Leave Link  401 at Mon Jul 17 10:20:09 2017, MaxMem=    33554432 cpu:        82.2
 (Enter /sw/chem/g09/l502.exe)
 UHF open shell SCF:
 Using DIIS extrapolation, IDIIS=  1040.
 Two-electron integral symmetry not used.
 IVT=     1964258 IEndB=     1964258 NGot=    33554432 MDV=    32908581
 LenX=    32908581 LenY=    32592175
 Requested convergence on RMS density matrix=1.00D-08 within1000 cycles.
 Requested convergence on MAX density matrix=1.00D-06.
 Requested convergence on             energy=1.00D-06.
 No special actions if energy rises.
 Fock matrices will be formed incrementally for  20 cycles.

 Cycle   1  Pass 1  IDiag  1:
 FoFJK:  IHMeth= 1 ICntrl=       0 DoSepK=T KAlg= 0 I1Cent=   0 FoldK=F
 IRaf=         1 NMat=   1 IRICut=       1 DoRegI=T DoRafI=F ISym2E= 0.
 FoFCou: FMM=F IPFlag=           0 FMFlag=      100000 FMFlg1=           0
         NFxFlg=           0 DoJE=T BraDBF=F KetDBF=F FulRan=T
         wScrn=  0.000000 ICntrl=     500 IOpCl=  0 I1Cent=           0 NGrid=           0
         NMat0=    1 NMatS0=      1 NMatT0=    0 NMatD0=    1 NMtDS0=    0 NMtDT0=    0
 Symmetry not used in FoFCou.
 CoulSu:  requested number of processors reduced to:  11 ShMem   1 Linda.
 CoulSu:  requested number of processors reduced to:  11 ShMem   1 Linda.
 CoulSu:  requested number of processors reduced to:  11 ShMem   1 Linda.
 E= -3005.47781444166    
 DIIS: error= 9.54D-02 at cycle   1 NSaved=   1.
 NSaved= 1 IEnMin= 1 EnMin= -3005.47781444166     IErMin= 1 ErrMin= 9.54D-02
 ErrMax= 9.54D-02  0.00D+00 EMaxC= 1.00D-01 BMatC= 2.60D+01 BMatP= 2.60D+01
 IDIUse=3 WtCom= 4.61D-02 WtEn= 9.54D-01
 Coeff-Com:  0.100D+01
 Coeff-En:   0.100D+01
 Coeff:      0.100D+01
 Gap=     0.338 Goal=   None    Shift=    0.000
 Gap=     0.001 Goal=   None    Shift=    0.000
 GapD=    0.001 DampG=0.250 DampE=0.250 DampFc=0.1250 IDamp=-1.
 Damping current iteration by 1.25D-01
 RMSDP=3.89D-02 MaxDP=1.16D+01              OVMax= 9.92D-01

 Cycle   2  Pass 1  IDiag  1:
 RMSU=  3.11D-03    CP:  8.94D-01
 CoulSu:  requested number of processors reduced to:  11 ShMem   1 Linda.
 CoulSu:  requested number of processors reduced to:  11 ShMem   1 Linda.
 CoulSu:  requested number of processors reduced to:  11 ShMem   1 Linda.
 E= -3007.21383150333     Delta-E=       -1.736017061669 Rises=F Damp=T
 DIIS: error= 5.61D-02 at cycle   2 NSaved=   2.
 NSaved= 2 IEnMin= 2 EnMin= -3007.21383150333     IErMin= 2 ErrMin= 5.61D-02
 ErrMax= 5.61D-02  0.00D+00 EMaxC= 1.00D-01 BMatC= 1.16D+01 BMatP= 2.60D+01
 IDIUse=3 WtCom= 4.39D-01 WtEn= 5.61D-01
 Coeff-Com: -0.114D+01 0.214D+01
 Coeff-En:   0.000D+00 0.100D+01
 Coeff:     -0.499D+00 0.150D+01
 Gap=     0.406 Goal=   None    Shift=    0.000
 Gap=     0.004 Goal=   None    Shift=    0.000
 RMSDP=2.89D-02 MaxDP=1.03D+01 DE=-1.74D+00 OVMax= 7.20D-01

 Cycle   3  Pass 1  IDiag  1:
 RMSU=  9.97D-03    CP:  1.34D-01  2.39D+00
 CoulSu:  requested number of processors reduced to:  11 ShMem   1 Linda.
 CoulSu:  requested number of processors reduced to:  11 ShMem   1 Linda.
 CoulSu:  requested number of processors reduced to:  11 ShMem   1 Linda.
 E= -3001.87512250227     Delta-E=        5.338709001058 Rises=F Damp=F
 DIIS: error= 1.04D-01 at cycle   3 NSaved=   3.
 NSaved= 3 IEnMin= 2 EnMin= -3007.21383150333     IErMin= 2 ErrMin= 5.61D-02
 ErrMax= 1.04D-01  0.00D+00 EMaxC= 1.00D-01 BMatC= 6.05D+01 BMatP= 1.16D+01
 IDIUse=2 WtCom= 0.00D+00 WtEn= 1.00D+00
 EnCoef did   100 forward-backward iterations
 Coeff-En:   0.590D+00 0.517D-02 0.404D+00
 Coeff:      0.590D+00 0.517D-02 0.404D+00
 Gap=     0.230 Goal=   None    Shift=    0.000
 Gap=    -0.142 Goal=   None    Shift=    0.000
 RMSDP=2.93D-03 MaxDP=3.48D-01 DE= 5.34D+00 OVMax= 5.00D-01

 Cycle   4  Pass 1  IDiag  1:
 RMSU=  2.79D-03    CP:  1.36D-01  2.11D+00  9.79D-01
 CoulSu:  requested number of processors reduced to:  11 ShMem   1 Linda.
 CoulSu:  requested number of processors reduced to:  11 ShMem   1 Linda.
 CoulSu:  requested number of processors reduced to:  11 ShMem   1 Linda.
 E= -3009.53015557145     Delta-E=       -7.655033069183 Rises=F Damp=F
 DIIS: error= 2.21D-02 at cycle   4 NSaved=   4.
 NSaved= 4 IEnMin= 4 EnMin= -3009.53015557145     IErMin= 4 ErrMin= 2.21D-02
 ErrMax= 2.21D-02  0.00D+00 EMaxC= 1.00D-01 BMatC= 2.97D+00 BMatP= 1.16D+01
 IDIUse=3 WtCom= 7.79D-01 WtEn= 2.21D-01
 Coeff-Com:  0.993D-01 0.143D+00 0.342D-01 0.724D+00
 Coeff-En:   0.947D-01 0.000D+00 0.000D+00 0.905D+00
 Coeff:      0.982D-01 0.111D+00 0.267D-01 0.764D+00
 Gap=     0.282 Goal=   None    Shift=    0.000
 Gap=     0.212 Goal=   None    Shift=    0.000
 RMSDP=2.99D-03 MaxDP=1.86D-01 DE=-7.66D+00 OVMax= 3.32D-01

 Cycle   5  Pass 1  IDiag  1:
 RMSU=  2.76D-03    CP:  1.52D-01  1.90D+00  9.89D-01  7.35D-01
 CoulSu:  requested number of processors reduced to:  11 ShMem   1 Linda.
 CoulSu:  requested number of processors reduced to:  11 ShMem   1 Linda.
 CoulSu:  requested number of processors reduced to:  11 ShMem   1 Linda.
 E= -3009.59281162909     Delta-E=       -0.062656057632 Rises=F Damp=F
 DIIS: error= 1.98D-02 at cycle   5 NSaved=   5.
 NSaved= 5 IEnMin= 5 EnMin= -3009.59281162909     IErMin= 5 ErrMin= 1.98D-02
 ErrMax= 1.98D-02  0.00D+00 EMaxC= 1.00D-01 BMatC= 2.68D+00 BMatP= 2.97D+00
 IDIUse=3 WtCom= 8.02D-01 WtEn= 1.98D-01
 Coeff-Com: -0.476D-01 0.110D+00-0.185D-01 0.476D+00 0.481D+00
 Coeff-En:   0.000D+00 0.000D+00 0.000D+00 0.476D+00 0.524D+00
 Coeff:     -0.382D-01 0.879D-01-0.148D-01 0.476D+00 0.489D+00
 Gap=     0.300 Goal=   None    Shift=    0.000
 Gap=     0.281 Goal=   None    Shift=    0.000
 RMSDP=1.91D-03 MaxDP=1.74D-01 DE=-6.27D-02 OVMax= 1.62D-01

 Cycle   6  Pass 1  IDiag  1:
 RMSU=  8.45D-04    CP:  1.36D-01  1.94D+00  9.97D-01  8.77D-01  4.36D-01
 CoulSu:  requested number of processors reduced to:  11 ShMem   1 Linda.
 CoulSu:  requested number of processors reduced to:  11 ShMem   1 Linda.
 E= -3010.11579594633     Delta-E=       -0.522984317244 Rises=F Damp=F
 DIIS: error= 5.13D-03 at cycle   6 NSaved=   6.
 NSaved= 6 IEnMin= 6 EnMin= -3010.11579594633     IErMin= 6 ErrMin= 5.13D-03
 ErrMax= 5.13D-03  0.00D+00 EMaxC= 1.00D-01 BMatC= 1.11D-01 BMatP= 2.68D+00
 IDIUse=3 WtCom= 9.49D-01 WtEn= 5.13D-02
 Coeff-Com: -0.870D-01 0.114D+00 0.266D-02 0.115D+00 0.168D+00 0.687D+00
 Coeff-En:   0.000D+00 0.000D+00 0.000D+00 0.000D+00 0.000D+00 0.100D+01
 Coeff:     -0.825D-01 0.109D+00 0.252D-02 0.109D+00 0.159D+00 0.703D+00
 Gap=     0.266 Goal=   None    Shift=    0.000
 Gap=     0.278 Goal=   None    Shift=    0.000
 RMSDP=4.23D-04 MaxDP=4.80D-02 DE=-5.23D-01 OVMax= 4.39D-02

 Cycle   7  Pass 1  IDiag  1:
 RMSU=  3.41D-04    CP:  1.34D-01  1.98D+00  9.94D-01  8.78D-01  3.63D-01
                    CP:  1.02D+00
 CoulSu:  requested number of processors reduced to:  11 ShMem   1 Linda.
 CoulSu:  requested number of processors reduced to:  11 ShMem   1 Linda.
 E= -3010.13505251258     Delta-E=       -0.019256566246 Rises=F Damp=F
 DIIS: error= 2.26D-03 at cycle   7 NSaved=   7.
 NSaved= 7 IEnMin= 7 EnMin= -3010.13505251258     IErMin= 7 ErrMin= 2.26D-03
 ErrMax= 2.26D-03  0.00D+00 EMaxC= 1.00D-01 BMatC= 2.50D-02 BMatP= 1.11D-01
 IDIUse=3 WtCom= 9.77D-01 WtEn= 2.26D-02
 Coeff-Com: -0.392D-01 0.475D-01 0.835D-02 0.178D-01 0.316D-02 0.169D+00
 Coeff-Com:  0.793D+00
 Coeff-En:   0.000D+00 0.000D+00 0.000D+00 0.000D+00 0.000D+00 0.000D+00
 Coeff-En:   0.100D+01
 Coeff:     -0.384D-01 0.464D-01 0.816D-02 0.174D-01 0.309D-02 0.166D+00
 Coeff:      0.798D+00
 Gap=     0.277 Goal=   None    Shift=    0.000
 Gap=     0.280 Goal=   None    Shift=    0.000
 RMSDP=2.28D-04 MaxDP=1.79D-02 DE=-1.93D-02 OVMax= 3.67D-02

 Cycle   8  Pass 1  IDiag  1:
 RMSU=  1.21D-04    CP:  1.33D-01  1.99D+00  9.94D-01  8.70D-01  3.16D-01
                    CP:  1.14D+00  1.25D+00
 CoulSu:  requested number of processors reduced to:  11 ShMem   1 Linda.
 CoulSu:  requested number of processors reduced to:  11 ShMem   1 Linda.
 E= -3010.13990037963     Delta-E=       -0.004847867050 Rises=F Damp=F
 DIIS: error= 1.07D-03 at cycle   8 NSaved=   8.
 NSaved= 8 IEnMin= 8 EnMin= -3010.13990037963     IErMin= 8 ErrMin= 1.07D-03
 ErrMax= 1.07D-03  0.00D+00 EMaxC= 1.00D-01 BMatC= 5.07D-03 BMatP= 2.50D-02
 IDIUse=3 WtCom= 9.89D-01 WtEn= 1.07D-02
 Coeff-Com: -0.265D-02 0.283D-02 0.252D-02 0.321D-02-0.254D-01-0.149D+00
 Coeff-Com:  0.177D+00 0.992D+00
 Coeff-En:   0.000D+00 0.000D+00 0.000D+00 0.000D+00 0.000D+00 0.000D+00
 Coeff-En:   0.000D+00 0.100D+01
 Coeff:     -0.262D-02 0.280D-02 0.249D-02 0.317D-02-0.251D-01-0.148D+00
 Coeff:      0.175D+00 0.992D+00
 Gap=     0.286 Goal=   None    Shift=    0.000
 Gap=     0.286 Goal=   None    Shift=    0.000
 RMSDP=1.76D-04 MaxDP=1.32D-02 DE=-4.85D-03 OVMax= 3.19D-02

 Cycle   9  Pass 1  IDiag  1:
 RMSU=  7.06D-05    CP:  1.32D-01  2.00D+00  9.93D-01  8.68D-01  2.79D-01
                    CP:  1.19D+00  1.54D+00  1.44D+00
 CoulSu:  requested number of processors reduced to:  11 ShMem   1 Linda.
 CoulSu:  requested number of processors reduced to:  11 ShMem   1 Linda.
 E= -3010.14169212924     Delta-E=       -0.001791749618 Rises=F Damp=F
 DIIS: error= 3.03D-04 at cycle   9 NSaved=   9.
 NSaved= 9 IEnMin= 9 EnMin= -3010.14169212924     IErMin= 9 ErrMin= 3.03D-04
 ErrMax= 3.03D-04  0.00D+00 EMaxC= 1.00D-01 BMatC= 6.63D-04 BMatP= 5.07D-03
 IDIUse=3 WtCom= 9.97D-01 WtEn= 3.03D-03
 Coeff-Com:  0.162D-02-0.167D-02-0.510D-03 0.265D-02-0.799D-02-0.769D-01
 Coeff-Com: -0.306D-01 0.443D+00 0.670D+00
 Coeff-En:   0.000D+00 0.000D+00 0.000D+00 0.000D+00 0.000D+00 0.000D+00
 Coeff-En:   0.000D+00 0.000D+00 0.100D+01
 Coeff:      0.161D-02-0.167D-02-0.508D-03 0.265D-02-0.796D-02-0.767D-01
 Coeff:     -0.305D-01 0.442D+00 0.671D+00
 Gap=     0.287 Goal=   None    Shift=    0.000
 Gap=     0.287 Goal=   None    Shift=    0.000
 RMSDP=5.26D-05 MaxDP=3.91D-03 DE=-1.79D-03 OVMax= 1.38D-02

 Cycle  10  Pass 1  IDiag  1:
 RMSU=  2.38D-05    CP:  1.32D-01  2.00D+00  9.93D-01  8.68D-01  2.71D-01
                    CP:  1.20D+00  1.61D+00  1.68D+00  1.09D+00
 CoulSu:  requested number of processors reduced to:  11 ShMem   1 Linda.
 CoulSu:  requested number of processors reduced to:  11 ShMem   1 Linda.
 E= -3010.14209704950     Delta-E=       -0.000404920254 Rises=F Damp=F
 DIIS: error= 2.18D-04 at cycle  10 NSaved=  10.
 NSaved=10 IEnMin=10 EnMin= -3010.14209704950     IErMin=10 ErrMin= 2.18D-04
 ErrMax= 2.18D-04  0.00D+00 EMaxC= 1.00D-01 BMatC= 1.87D-04 BMatP= 6.63D-04
 IDIUse=3 WtCom= 9.98D-01 WtEn= 2.18D-03
 Coeff-Com:  0.121D-02-0.151D-02-0.424D-03-0.190D-02-0.196D-03 0.135D-01
 Coeff-Com:  0.472D-02-0.501D-01 0.275D-01 0.101D+01
 Coeff-En:   0.000D+00 0.000D+00 0.000D+00 0.000D+00 0.000D+00 0.000D+00
 Coeff-En:   0.000D+00 0.000D+00 0.000D+00 0.100D+01
 Coeff:      0.120D-02-0.150D-02-0.423D-03-0.189D-02-0.196D-03 0.135D-01
 Coeff:      0.471D-02-0.500D-01 0.274D-01 0.101D+01
 Gap=     0.288 Goal=   None    Shift=    0.000
 Gap=     0.287 Goal=   None    Shift=    0.000
 RMSDP=3.69D-05 MaxDP=2.97D-03 DE=-4.05D-04 OVMax= 1.56D-02

 Cycle  11  Pass 1  IDiag  1:
 RMSU=  1.53D-05    CP:  1.32D-01  2.00D+00  9.93D-01  8.69D-01  2.68D-01
                    CP:  1.21D+00  1.65D+00  1.79D+00  1.32D+00  1.86D+00
 CoulSu:  requested number of processors reduced to:  11 ShMem   1 Linda.
 CoulSu:  requested number of processors reduced to:  11 ShMem   1 Linda.
 E= -3010.14238410430     Delta-E=       -0.000287054798 Rises=F Damp=F
 DIIS: error= 1.73D-04 at cycle  11 NSaved=  11.
 NSaved=11 IEnMin=11 EnMin= -3010.14238410430     IErMin=11 ErrMin= 1.73D-04
 ErrMax= 1.73D-04  0.00D+00 EMaxC= 1.00D-01 BMatC= 1.18D-04 BMatP= 1.87D-04
 IDIUse=3 WtCom= 9.98D-01 WtEn= 1.73D-03
 Coeff-Com: -0.231D-03 0.809D-04 0.248D-04-0.351D-02 0.328D-02 0.471D-01
 Coeff-Com:  0.411D-01-0.241D+00-0.414D+00 0.173D+00 0.140D+01
 Coeff-En:   0.000D+00 0.000D+00 0.000D+00 0.000D+00 0.000D+00 0.000D+00
 Coeff-En:   0.000D+00 0.000D+00 0.000D+00 0.000D+00 0.100D+01
 Coeff:     -0.230D-03 0.807D-04 0.247D-04-0.350D-02 0.328D-02 0.470D-01
 Coeff:      0.410D-01-0.241D+00-0.413D+00 0.172D+00 0.139D+01
 Gap=     0.288 Goal=   None    Shift=    0.000
 Gap=     0.287 Goal=   None    Shift=    0.000
 RMSDP=5.68D-05 MaxDP=5.12D-03 DE=-2.87D-04 OVMax= 2.66D-02

 Cycle  12  Pass 1  IDiag  1:
 RMSU=  1.60D-05    CP:  1.32D-01  1.99D+00  9.93D-01  8.69D-01  2.67D-01
                    CP:  1.22D+00  1.68D+00  1.94D+00  1.66D+00  3.00D+00
                    CP:  2.43D+00
 CoulSu:  requested number of processors reduced to:  11 ShMem   1 Linda.
 CoulSu:  requested number of processors reduced to:  11 ShMem   1 Linda.
 E= -3010.14276447386     Delta-E=       -0.000380369561 Rises=F Damp=F
 DIIS: error= 1.44D-04 at cycle  12 NSaved=  12.
 NSaved=12 IEnMin=12 EnMin= -3010.14276447386     IErMin=12 ErrMin= 1.44D-04
 ErrMax= 1.44D-04  0.00D+00 EMaxC= 1.00D-01 BMatC= 5.79D-05 BMatP= 1.18D-04
 IDIUse=3 WtCom= 9.99D-01 WtEn= 1.44D-03
 Coeff-Com: -0.725D-03 0.909D-03 0.201D-03-0.142D-03 0.154D-02 0.542D-02
 Coeff-Com: -0.250D-02-0.521D-01-0.107D+00-0.322D+00 0.365D+00 0.111D+01
 Coeff-En:   0.000D+00 0.000D+00 0.000D+00 0.000D+00 0.000D+00 0.000D+00
 Coeff-En:   0.000D+00 0.000D+00 0.000D+00 0.000D+00 0.000D+00 0.100D+01
 Coeff:     -0.724D-03 0.908D-03 0.200D-03-0.141D-03 0.154D-02 0.542D-02
 Coeff:     -0.250D-02-0.520D-01-0.107D+00-0.321D+00 0.364D+00 0.111D+01
 Gap=     0.289 Goal=   None    Shift=    0.000
 Gap=     0.288 Goal=   None    Shift=    0.000
 RMSDP=4.52D-05 MaxDP=5.04D-03 DE=-3.80D-04 OVMax= 2.28D-02

 Cycle  13  Pass 1  IDiag  1:
 RMSU=  2.11D-05    CP:  1.32D-01  1.99D+00  9.92D-01  8.68D-01  2.66D-01
                    CP:  1.23D+00  1.71D+00  2.03D+00  1.88D+00  3.00D+00
                    CP:  3.00D+00  2.77D+00
 CoulSu:  requested number of processors reduced to:  11 ShMem   1 Linda.
 CoulSu:  requested number of processors reduced to:  11 ShMem   1 Linda.
 E= -3010.14300289434     Delta-E=       -0.000238420487 Rises=F Damp=F
 DIIS: error= 1.16D-04 at cycle  13 NSaved=  13.
 NSaved=13 IEnMin=13 EnMin= -3010.14300289434     IErMin=13 ErrMin= 1.16D-04
 ErrMax= 1.16D-04  0.00D+00 EMaxC= 1.00D-01 BMatC= 4.36D-05 BMatP= 5.79D-05
 IDIUse=3 WtCom= 9.99D-01 WtEn= 1.16D-03
 Coeff-Com: -0.385D-03 0.584D-03 0.115D-03 0.242D-02 0.236D-04-0.189D-01
 Coeff-Com: -0.298D-01 0.747D-01 0.170D+00-0.101D+00-0.570D+00 0.154D+00
 Coeff-Com:  0.132D+01
 Coeff-En:   0.000D+00 0.000D+00 0.000D+00 0.000D+00 0.000D+00 0.000D+00
 Coeff-En:   0.000D+00 0.000D+00 0.000D+00 0.000D+00 0.000D+00 0.000D+00
 Coeff-En:   0.100D+01
 Coeff:     -0.385D-03 0.584D-03 0.115D-03 0.242D-02 0.236D-04-0.189D-01
 Coeff:     -0.298D-01 0.746D-01 0.170D+00-0.101D+00-0.569D+00 0.154D+00
 Coeff:      0.132D+01
 Gap=     0.289 Goal=   None    Shift=    0.000
 Gap=     0.288 Goal=   None    Shift=    0.000
 RMSDP=4.51D-05 MaxDP=6.03D-03 DE=-2.38D-04 OVMax= 2.38D-02

 Cycle  14  Pass 1  IDiag  1:
 RMSU=  2.99D-05    CP:  1.32D-01  1.99D+00  9.92D-01  8.68D-01  2.66D-01
                    CP:  1.23D+00  1.73D+00  2.08D+00  2.07D+00  3.00D+00
                    CP:  3.00D+00  3.00D+00  2.21D+00
 CoulSu:  requested number of processors reduced to:  11 ShMem   1 Linda.
 CoulSu:  requested number of processors reduced to:  11 ShMem   1 Linda.
 E= -3010.14319640580     Delta-E=       -0.000193511451 Rises=F Damp=F
 DIIS: error= 8.69D-05 at cycle  14 NSaved=  14.
 NSaved=14 IEnMin=14 EnMin= -3010.14319640580     IErMin=14 ErrMin= 8.69D-05
 ErrMax= 8.69D-05  0.00D+00 EMaxC= 1.00D-01 BMatC= 2.25D-05 BMatP= 4.36D-05
 IDIUse=1 WtCom= 1.00D+00 WtEn= 0.00D+00
 Coeff-Com:  0.646D-04-0.350D-04-0.426D-04 0.124D-02-0.173D-03-0.428D-02
 Coeff-Com: -0.915D-03 0.322D-01 0.833D-01 0.153D+00-0.326D+00-0.715D+00
 Coeff-Com:  0.393D+00 0.138D+01
 Coeff:      0.646D-04-0.350D-04-0.426D-04 0.124D-02-0.173D-03-0.428D-02
 Coeff:     -0.915D-03 0.322D-01 0.833D-01 0.153D+00-0.326D+00-0.715D+00
 Coeff:      0.393D+00 0.138D+01
 Gap=     0.289 Goal=   None    Shift=    0.000
 Gap=     0.289 Goal=   None    Shift=    0.000
 RMSDP=5.23D-05 MaxDP=7.75D-03 DE=-1.94D-04 OVMax= 2.83D-02

 Cycle  15  Pass 1  IDiag  1:
 RMSU=  1.40D-05    CP:  1.32D-01  1.99D+00  9.92D-01  8.68D-01  2.66D-01
                    CP:  1.23D+00  1.74D+00  2.13D+00  2.26D+00  3.00D+00
                    CP:  3.00D+00  3.00D+00  3.00D+00  2.35D+00
 CoulSu:  requested number of processors reduced to:  11 ShMem   1 Linda.
 CoulSu:  requested number of processors reduced to:  11 ShMem   1 Linda.
 E= -3010.14336843432     Delta-E=       -0.000172028527 Rises=F Damp=F
 DIIS: error= 8.31D-05 at cycle  15 NSaved=  15.
 NSaved=15 IEnMin=15 EnMin= -3010.14336843432     IErMin=15 ErrMin= 8.31D-05
 ErrMax= 8.31D-05  0.00D+00 EMaxC= 1.00D-01 BMatC= 1.76D-05 BMatP= 2.25D-05
 IDIUse=1 WtCom= 1.00D+00 WtEn= 0.00D+00
 Coeff-Com:  0.133D-03-0.171D-03-0.254D-04 0.207D-04-0.239D-03 0.150D-02
 Coeff-Com:  0.872D-02 0.593D-02 0.503D-03 0.479D-01-0.339D-01-0.285D+00
 Coeff-Com: -0.801D-01 0.556D+00 0.778D+00
 Coeff:      0.133D-03-0.171D-03-0.254D-04 0.207D-04-0.239D-03 0.150D-02
 Coeff:      0.872D-02 0.593D-02 0.503D-03 0.479D-01-0.339D-01-0.285D+00
 Coeff:     -0.801D-01 0.556D+00 0.778D+00
 Gap=     0.290 Goal=   None    Shift=    0.000
 Gap=     0.289 Goal=   None    Shift=    0.000
 RMSDP=1.89D-05 MaxDP=3.24D-03 DE=-1.72D-04 OVMax= 1.06D-02

 Cycle  16  Pass 1  IDiag  1:
 RMSU=  3.77D-06    CP:  1.32D-01  1.99D+00  9.92D-01  8.68D-01  2.66D-01
                    CP:  1.23D+00  1.74D+00  2.14D+00  2.33D+00  3.00D+00
                    CP:  3.00D+00  3.00D+00  3.00D+00  2.81D+00  1.82D+00
 CoulSu:  requested number of processors reduced to:  11 ShMem   1 Linda.
 CoulSu:  requested number of processors reduced to:  11 ShMem   1 Linda.
 E= -3010.14342718509     Delta-E=       -0.000058750764 Rises=F Damp=F
 DIIS: error= 8.17D-05 at cycle  16 NSaved=  16.
 NSaved=16 IEnMin=16 EnMin= -3010.14342718509     IErMin=16 ErrMin= 8.17D-05
 ErrMax= 8.17D-05  0.00D+00 EMaxC= 1.00D-01 BMatC= 1.51D-05 BMatP= 1.76D-05
 IDIUse=1 WtCom= 1.00D+00 WtEn= 0.00D+00
 Coeff-Com:  0.326D-04-0.481D-04-0.444D-05-0.172D-03-0.167D-03 0.402D-03
 Coeff-Com:  0.389D-02 0.468D-02-0.759D-02-0.262D-01 0.207D-01 0.379D-01
 Coeff-Com: -0.572D-01-0.633D-01 0.251D+00 0.836D+00
 Coeff:      0.326D-04-0.481D-04-0.444D-05-0.172D-03-0.167D-03 0.402D-03
 Coeff:      0.389D-02 0.468D-02-0.759D-02-0.262D-01 0.207D-01 0.379D-01
 Coeff:     -0.572D-01-0.633D-01 0.251D+00 0.836D+00
 Gap=     0.290 Goal=   None    Shift=    0.000
 Gap=     0.289 Goal=   None    Shift=    0.000
 RMSDP=1.24D-05 MaxDP=2.30D-03 DE=-5.88D-05 OVMax= 6.91D-03

 Cycle  17  Pass 1  IDiag  1:
 RMSU=  3.77D-06    CP:  1.32D-01  1.99D+00  9.92D-01  8.68D-01  2.66D-01
                    CP:  1.23D+00  1.74D+00  2.14D+00  2.35D+00  3.00D+00
                    CP:  3.00D+00  3.00D+00  3.00D+00  3.00D+00  2.35D+00
                    CP:  2.35D+00
 CoulSu:  requested number of processors reduced to:  11 ShMem   1 Linda.
 CoulSu:  requested number of processors reduced to:  11 ShMem   1 Linda.
 E= -3010.14346952019     Delta-E=       -0.000042335101 Rises=F Damp=F
 DIIS: error= 8.00D-05 at cycle  17 NSaved=  17.
 NSaved=17 IEnMin=17 EnMin= -3010.14346952019     IErMin=17 ErrMin= 8.00D-05
 ErrMax= 8.00D-05  0.00D+00 EMaxC= 1.00D-01 BMatC= 1.47D-05 BMatP= 1.51D-05
 IDIUse=1 WtCom= 1.00D+00 WtEn= 0.00D+00
 Coeff-Com:  0.463D-04-0.704D-04-0.388D-05-0.268D-03-0.190D-03 0.687D-03
 Coeff-Com:  0.527D-02 0.522D-02-0.131D-01-0.438D-01 0.357D-01 0.907D-01
 Coeff-Com: -0.834D-01-0.157D+00 0.321D+00 0.133D+01-0.489D+00
 Coeff:      0.463D-04-0.704D-04-0.388D-05-0.268D-03-0.190D-03 0.687D-03
 Coeff:      0.527D-02 0.522D-02-0.131D-01-0.438D-01 0.357D-01 0.907D-01
 Coeff:     -0.834D-01-0.157D+00 0.321D+00 0.133D+01-0.489D+00
 Gap=     0.289 Goal=   None    Shift=    0.000
 Gap=     0.289 Goal=   None    Shift=    0.000
 RMSDP=4.61D-06 MaxDP=8.36D-04 DE=-4.23D-05 OVMax= 2.49D-03

 Cycle  18  Pass 1  IDiag  1:
 RMSU=  8.38D-07    CP:  1.32D-01  1.99D+00  9.92D-01  8.68D-01  2.66D-01
                    CP:  1.23D+00  1.74D+00  2.14D+00  2.35D+00  3.00D+00
                    CP:  3.00D+00  3.00D+00  3.00D+00  2.98D+00  2.17D+00
                    CP:  1.70D+00  3.66D-01
 CoulSu:  requested number of processors reduced to:  11 ShMem   1 Linda.
 CoulSu:  requested number of processors reduced to:  11 ShMem   1 Linda.
 E= -3010.14345360809     Delta-E=        0.000015912096 Rises=F Damp=F
 DIIS: error= 7.90D-05 at cycle  18 NSaved=  18.
 NSaved=18 IEnMin=17 EnMin= -3010.14346952019     IErMin=18 ErrMin= 7.90D-05
 ErrMax= 7.90D-05  0.00D+00 EMaxC= 1.00D-01 BMatC= 1.44D-05 BMatP= 1.47D-05
 IDIUse=1 WtCom= 1.00D+00 WtEn= 0.00D+00
 Coeff-Com: -0.897D-04 0.113D-03-0.458D-06-0.625D-03-0.373D-03-0.205D-02
 Coeff-Com: -0.150D-02 0.128D-01-0.129D-01-0.137D+00 0.834D-01 0.498D+00
 Coeff-Com: -0.492D-01-0.990D+00-0.350D+00 0.268D+01-0.970D+01 0.897D+01
 Coeff:     -0.897D-04 0.113D-03-0.458D-06-0.625D-03-0.373D-03-0.205D-02
 Coeff:     -0.150D-02 0.128D-01-0.129D-01-0.137D+00 0.834D-01 0.498D+00
 Coeff:     -0.492D-01-0.990D+00-0.350D+00 0.268D+01-0.970D+01 0.897D+01
 Gap=     0.289 Goal=   None    Shift=    0.000
 Gap=     0.289 Goal=   None    Shift=    0.000
 RMSDP=2.89D-05 MaxDP=4.80D-03 DE= 1.59D-05 OVMax= 1.49D-02

 Cycle  19  Pass 1  IDiag  1:
 RMSU=  8.10D-06    CP:  1.32D-01  1.99D+00  9.92D-01  8.69D-01  2.67D-01
                    CP:  1.23D+00  1.73D+00  2.12D+00  2.32D+00  3.00D+00
                    CP:  3.00D+00  3.00D+00  3.00D+00  2.65D+00  1.17D+00
                    CP: -2.94D+00 -2.80D+00 -2.09D+00
 CoulSu:  requested number of processors reduced to:  11 ShMem   1 Linda.
 CoulSu:  requested number of processors reduced to:  11 ShMem   1 Linda.
 E= -3010.14336403872     Delta-E=        0.000089569367 Rises=F Damp=F
 DIIS: error= 6.92D-05 at cycle  19 NSaved=  19.
 NSaved=19 IEnMin=17 EnMin= -3010.14346952019     IErMin=19 ErrMin= 6.92D-05
 ErrMax= 6.92D-05  0.00D+00 EMaxC= 1.00D-01 BMatC= 1.32D-05 BMatP= 1.44D-05
 IDIUse=1 WtCom= 1.00D+00 WtEn= 0.00D+00
 Coeff-Com: -0.107D-03 0.120D-03 0.843D-05-0.121D-03-0.247D-03-0.303D-02
 Coeff-Com: -0.139D-01-0.332D-02 0.157D-01 0.325D-02 0.470D-01 0.162D+00
 Coeff-Com:  0.275D-01-0.475D+00-0.869D+00-0.103D+00-0.932D+01 0.934D+01
 Coeff-Com:  0.219D+01
 Coeff:     -0.107D-03 0.120D-03 0.843D-05-0.121D-03-0.247D-03-0.303D-02
 Coeff:     -0.139D-01-0.332D-02 0.157D-01 0.325D-02 0.470D-01 0.162D+00
 Coeff:      0.275D-01-0.475D+00-0.869D+00-0.103D+00-0.932D+01 0.934D+01
 Coeff:      0.219D+01
 Gap=     0.289 Goal=   None    Shift=    0.000
 Gap=     0.289 Goal=   None    Shift=    0.000
 RMSDP=4.77D-05 MaxDP=7.10D-03 DE= 8.96D-05 OVMax= 2.36D-02

 Cycle  20  Pass 1  IDiag  1:
 RMSU=  3.65D-05    CP:  1.32D-01  1.99D+00  9.92D-01  8.69D-01  2.67D-01
                    CP:  1.23D+00  1.73D+00  2.11D+00  2.29D+00  3.00D+00
                    CP:  3.00D+00  3.00D+00  3.00D+00  2.22D+00 -2.83D-01
                    CP: -3.00D+00 -3.00D+00 -3.00D+00  3.00D+00
 CoulSu:  requested number of processors reduced to:  11 ShMem   1 Linda.
 CoulSu:  requested number of processors reduced to:  11 ShMem   1 Linda.
 E= -3010.14325341456     Delta-E=        0.000110624164 Rises=F Damp=F
 DIIS: error= 6.57D-05 at cycle  20 NSaved=  20.
 NSaved=20 IEnMin=17 EnMin= -3010.14346952019     IErMin=20 ErrMin= 6.57D-05
 ErrMax= 6.57D-05  0.00D+00 EMaxC= 1.00D-01 BMatC= 9.83D-06 BMatP= 1.32D-05
 IDIUse=1 WtCom= 1.00D+00 WtEn= 0.00D+00
 Coeff-Com: -0.929D-04 0.130D-03-0.184D-05 0.601D-03 0.387D-03 0.166D-02
 Coeff-Com: -0.245D-02-0.214D-01 0.236D-02 0.129D+00 0.331D-01-0.460D+00
 Coeff-Com: -0.937D-01 0.871D+00 0.272D+00-0.236D+01 0.916D+01-0.862D+01
 Coeff-Com: -0.506D-01 0.214D+01
 Coeff:     -0.929D-04 0.130D-03-0.184D-05 0.601D-03 0.387D-03 0.166D-02
 Coeff:     -0.245D-02-0.214D-01 0.236D-02 0.129D+00 0.331D-01-0.460D+00
 Coeff:     -0.937D-01 0.871D+00 0.272D+00-0.236D+01 0.916D+01-0.862D+01
 Coeff:     -0.506D-01 0.214D+01
 Gap=     0.290 Goal=   None    Shift=    0.000
 Gap=     0.288 Goal=   None    Shift=    0.000
 RMSDP=4.45D-05 MaxDP=6.67D-03 DE= 1.11D-04 OVMax= 2.17D-02

 Cycle  21  Pass 1  IDiag  1:
 Restarting incremental Fock formation.
 CoulSu:  requested number of processors reduced to:  11 ShMem   1 Linda.
 CoulSu:  requested number of processors reduced to:  11 ShMem   1 Linda.
 CoulSu:  requested number of processors reduced to:  11 ShMem   1 Linda.
 E= -3010.14320582759     Delta-E=        0.000047586965 Rises=F Damp=F
 DIIS: error= 4.80D-05 at cycle  21 NSaved=  20.
 NSaved=20 IEnMin=16 EnMin= -3010.14346952019     IErMin=20 ErrMin= 4.80D-05
 ErrMax= 4.80D-05  0.00D+00 EMaxC= 1.00D-01 BMatC= 5.19D-06 BMatP= 9.83D-06
 IDIUse=1 WtCom= 1.00D+00 WtEn= 0.00D+00
 Coeff-Com: -0.886D-04 0.125D-03 0.190D-03 0.546D-03 0.332D-02 0.848D-02
 Coeff-Com: -0.761D-02-0.289D-01-0.129D-02 0.349D-01-0.121D+00-0.835D-01
 Coeff-Com:  0.362D+00 0.622D+00-0.221D+00 0.811D+01-0.799D+01-0.171D+01
 Coeff-Com:  0.543D+00 0.148D+01
 Coeff:     -0.886D-04 0.125D-03 0.190D-03 0.546D-03 0.332D-02 0.848D-02
 Coeff:     -0.761D-02-0.289D-01-0.129D-02 0.349D-01-0.121D+00-0.835D-01
 Coeff:      0.362D+00 0.622D+00-0.221D+00 0.811D+01-0.799D+01-0.171D+01
 Coeff:      0.543D+00 0.148D+01
 Gap=     0.290 Goal=   None    Shift=    0.000
 Gap=     0.288 Goal=   None    Shift=    0.000
 RMSDP=2.98D-05 MaxDP=4.19D-03 DE= 4.76D-05 OVMax= 1.44D-02

 Cycle  22  Pass 1  IDiag  1:
 RMSU=  2.98D-05    CP:  1.00D+00
 CoulSu:  requested number of processors reduced to:  11 ShMem   1 Linda.
 CoulSu:  requested number of processors reduced to:  11 ShMem   1 Linda.
 E= -3010.14320393823     Delta-E=        0.000001889364 Rises=F Damp=F
 DIIS: error= 3.36D-05 at cycle  22 NSaved=  20.
 NSaved=20 IEnMin=15 EnMin= -3010.14346952019     IErMin=20 ErrMin= 3.36D-05
 ErrMax= 3.36D-05  0.00D+00 EMaxC= 1.00D-01 BMatC= 3.31D-06 BMatP= 5.19D-06
 IDIUse=1 WtCom= 1.00D+00 WtEn= 0.00D+00
 Coeff-Com: -0.143D-04-0.886D-04 0.206D-03 0.187D-02 0.461D-02 0.780D-05
 Coeff-Com: -0.166D-01-0.238D-01 0.892D-02 0.512D-01-0.149D-01-0.581D-01
 Coeff-Com:  0.217D+00 0.491D+00 0.691D+00-0.803D+00-0.627D+00-0.386D+00
 Coeff-Com:  0.528D+00 0.936D+00
 Coeff:     -0.143D-04-0.886D-04 0.206D-03 0.187D-02 0.461D-02 0.780D-05
 Coeff:     -0.166D-01-0.238D-01 0.892D-02 0.512D-01-0.149D-01-0.581D-01
 Coeff:      0.217D+00 0.491D+00 0.691D+00-0.803D+00-0.627D+00-0.386D+00
 Coeff:      0.528D+00 0.936D+00
 Gap=     0.290 Goal=   None    Shift=    0.000
 Gap=     0.288 Goal=   None    Shift=    0.000
 RMSDP=1.09D-05 MaxDP=1.20D-03 DE= 1.89D-06 OVMax= 4.97D-03

 Cycle  23  Pass 1  IDiag  1:
 RMSU=  4.13D-06    CP:  1.00D+00  1.34D+00
 CoulSu:  requested number of processors reduced to:  11 ShMem   1 Linda.
 CoulSu:  requested number of processors reduced to:  11 ShMem   1 Linda.
 E= -3010.14321090551     Delta-E=       -0.000006967283 Rises=F Damp=F
 DIIS: error= 3.65D-05 at cycle  23 NSaved=  20.
 NSaved=20 IEnMin=14 EnMin= -3010.14346952019     IErMin=19 ErrMin= 3.36D-05
 ErrMax= 3.65D-05  0.00D+00 EMaxC= 1.00D-01 BMatC= 2.74D-06 BMatP= 3.31D-06
 IDIUse=1 WtCom= 1.00D+00 WtEn= 0.00D+00
 Coeff-Com: -0.171D-03-0.705D-04 0.617D-03 0.163D-03 0.114D-03-0.212D-02
 Coeff-Com: -0.578D-02 0.257D-02 0.587D-01 0.889D-02-0.148D+00-0.781D-01
 Coeff-Com:  0.346D+00-0.261D+01 0.244D+01 0.340D+00-0.349D+00-0.427D+00
 Coeff-Com:  0.242D+00 0.118D+01
 Coeff:     -0.171D-03-0.705D-04 0.617D-03 0.163D-03 0.114D-03-0.212D-02
 Coeff:     -0.578D-02 0.257D-02 0.587D-01 0.889D-02-0.148D+00-0.781D-01
 Coeff:      0.346D+00-0.261D+01 0.244D+01 0.340D+00-0.349D+00-0.427D+00
 Coeff:      0.242D+00 0.118D+01
 Gap=     0.290 Goal=   None    Shift=    0.000
 Gap=     0.288 Goal=   None    Shift=    0.000
 RMSDP=9.91D-06 MaxDP=1.25D-03 DE=-6.97D-06 OVMax= 5.26D-03

 Cycle  24  Pass 1  IDiag  1:
 RMSU=  1.39D-06    CP:  1.00D+00  1.56D+00  2.74D+00
 CoulSu:  requested number of processors reduced to:  11 ShMem   1 Linda.
 CoulSu:  requested number of processors reduced to:  11 ShMem   1 Linda.
 E= -3010.14322231050     Delta-E=       -0.000011404984 Rises=F Damp=F
 DIIS: error= 3.93D-05 at cycle  24 NSaved=  20.
 NSaved=20 IEnMin=13 EnMin= -3010.14346952019     IErMin=18 ErrMin= 3.36D-05
 ErrMax= 3.93D-05  0.00D+00 EMaxC= 1.00D-01 BMatC= 2.49D-06 BMatP= 2.74D-06
 IDIUse=1 WtCom= 1.00D+00 WtEn= 0.00D+00
 Coeff-Com: -0.116D-04 0.208D-03 0.136D-02 0.886D-03-0.173D-02-0.284D-03
 Coeff-Com: -0.447D-02-0.102D-01-0.354D-02 0.256D-01 0.802D-01 0.861D-01
 Coeff-Com:  0.189D+00-0.263D+00-0.713D-01-0.327D-01-0.721D-01-0.148D+00
 Coeff-Com:  0.146D+00 0.108D+01
 Coeff:     -0.116D-04 0.208D-03 0.136D-02 0.886D-03-0.173D-02-0.284D-03
 Coeff:     -0.447D-02-0.102D-01-0.354D-02 0.256D-01 0.802D-01 0.861D-01
 Coeff:      0.189D+00-0.263D+00-0.713D-01-0.327D-01-0.721D-01-0.148D+00
 Coeff:      0.146D+00 0.108D+01
 Gap=     0.290 Goal=   None    Shift=    0.000
 Gap=     0.288 Goal=   None    Shift=    0.000
 RMSDP=7.56D-06 MaxDP=9.81D-04 DE=-1.14D-05 OVMax= 4.44D-03

 Cycle  25  Pass 1  IDiag  1:
 RMSU=  5.78D-06    CP:  1.00D+00  1.65D+00  3.00D+00  2.30D+00
 CoulSu:  requested number of processors reduced to:  11 ShMem   1 Linda.
 CoulSu:  requested number of processors reduced to:  11 ShMem   1 Linda.
 E= -3010.14323266877     Delta-E=       -0.000010358276 Rises=F Damp=F
 DIIS: error= 3.97D-05 at cycle  25 NSaved=  20.
 NSaved=20 IEnMin=12 EnMin= -3010.14346952019     IErMin=17 ErrMin= 3.36D-05
 ErrMax= 3.97D-05  0.00D+00 EMaxC= 1.00D-01 BMatC= 2.45D-06 BMatP= 2.49D-06
 IDIUse=1 WtCom= 1.00D+00 WtEn= 0.00D+00
 Coeff-Com:  0.799D-04 0.200D-02 0.185D-02-0.359D-02-0.995D-02-0.468D-02
 Coeff-Com:  0.465D-02-0.283D-02 0.213D-01 0.110D+00 0.991D-01 0.846D+00
 Coeff-Com: -0.899D+00-0.251D+00-0.957D-02 0.188D+00-0.908D-02-0.338D+00
 Coeff-Com:  0.217D+00 0.104D+01
 Coeff:      0.799D-04 0.200D-02 0.185D-02-0.359D-02-0.995D-02-0.468D-02
 Coeff:      0.465D-02-0.283D-02 0.213D-01 0.110D+00 0.991D-01 0.846D+00
 Coeff:     -0.899D+00-0.251D+00-0.957D-02 0.188D+00-0.908D-02-0.338D+00
 Coeff:      0.217D+00 0.104D+01
 Gap=     0.290 Goal=   None    Shift=    0.000
 Gap=     0.288 Goal=   None    Shift=    0.000
 RMSDP=6.29D-06 MaxDP=8.29D-04 DE=-1.04D-05 OVMax= 3.70D-03

 Cycle  26  Pass 1  IDiag  1:
 RMSU=  1.26D-06    CP:  1.00D+00  1.70D+00  3.00D+00  3.00D+00  2.00D+00
 CoulSu:  requested number of processors reduced to:  11 ShMem   1 Linda.
 CoulSu:  requested number of processors reduced to:  11 ShMem   1 Linda.
 E= -3010.14324159036     Delta-E=       -0.000008921586 Rises=F Damp=F
 DIIS: error= 3.97D-05 at cycle  26 NSaved=  20.
 NSaved=20 IEnMin=11 EnMin= -3010.14346952019     IErMin=16 ErrMin= 3.36D-05
 ErrMax= 3.97D-05  0.00D+00 EMaxC= 1.00D-01 BMatC= 2.46D-06 BMatP= 2.45D-06
 IDIUse=1 WtCom= 1.00D+00 WtEn= 0.00D+00
 Coeff-Com:  0.192D-02 0.208D-02-0.344D-02-0.114D-01-0.476D-02 0.868D-02
 Coeff-Com: -0.256D-02 0.156D-01 0.109D+00 0.109D+00 0.858D+00-0.914D+00
 Coeff-Com: -0.258D+00-0.516D-02 0.197D+00-0.198D-01-0.366D+00 0.247D+00
 Coeff-Com:  0.115D+01-0.108D+00
 Coeff:      0.192D-02 0.208D-02-0.344D-02-0.114D-01-0.476D-02 0.868D-02
 Coeff:     -0.256D-02 0.156D-01 0.109D+00 0.109D+00 0.858D+00-0.914D+00
 Coeff:     -0.258D+00-0.516D-02 0.197D+00-0.198D-01-0.366D+00 0.247D+00
 Coeff:      0.115D+01-0.108D+00
 Gap=     0.290 Goal=   None    Shift=    0.000
 Gap=     0.288 Goal=   None    Shift=    0.000
 RMSDP=4.58D-07 MaxDP=6.08D-05 DE=-8.92D-06 OVMax= 2.61D-04

 Cycle  27  Pass 1  IDiag  1:
 RMSU=  4.70D-08    CP:  1.00D+00  1.70D+00  3.00D+00  3.00D+00  1.93D+00
                    CP:  8.51D-01
 E= -3010.14324093744     Delta-E=        0.000000652924 Rises=F Damp=F
 DIIS: error= 3.97D-05 at cycle  27 NSaved=  20.
 NSaved=20 IEnMin=10 EnMin= -3010.14346952019     IErMin=15 ErrMin= 3.36D-05
 ErrMax= 3.97D-05  0.00D+00 EMaxC= 1.00D-01 BMatC= 2.46D-06 BMatP= 2.45D-06
 IDIUse=1 WtCom= 1.00D+00 WtEn= 0.00D+00
 Large coefficients: NSaved= 20 BigCof=   22.32 CofMax=   10.00 Det=-9.03D-11
 Inversion failed.  Reducing to 19 matrices.
 Large coefficients: NSaved= 19 BigCof=   22.36 CofMax=   10.00 Det=-9.21D-11
 Inversion failed.  Reducing to 18 matrices.
 Large coefficients: NSaved= 18 BigCof=   21.26 CofMax=   10.00 Det=-9.75D-11
 Inversion failed.  Reducing to 17 matrices.
 Large coefficients: NSaved= 17 BigCof=   20.69 CofMax=   10.00 Det=-1.01D-10
 Inversion failed.  Reducing to 16 matrices.
 Large coefficients: NSaved= 16 BigCof=   20.91 CofMax=   10.00 Det=-1.01D-10
 Inversion failed.  Reducing to 15 matrices.
 Large coefficients: NSaved= 15 BigCof=   20.28 CofMax=   10.00 Det=-1.03D-10
 Inversion failed.  Reducing to 14 matrices.
 Large coefficients: NSaved= 14 BigCof=   20.33 CofMax=   10.00 Det=-1.04D-10
 Inversion failed.  Reducing to 13 matrices.
 Large coefficients: NSaved= 13 BigCof=   20.30 CofMax=   10.00 Det=-1.04D-10
 Inversion failed.  Reducing to 12 matrices.
 Large coefficients: NSaved= 12 BigCof=   20.00 CofMax=   10.00 Det=-1.09D-10
 Inversion failed.  Reducing to 11 matrices.
 Large coefficients: NSaved= 11 BigCof=   18.98 CofMax=   10.00 Det=-1.14D-10
 Inversion failed.  Reducing to 10 matrices.
 Large coefficients: NSaved= 10 BigCof=   15.97 CofMax=   10.00 Det=-1.26D-10
 Inversion failed.  Reducing to  9 matrices.
 Large coefficients: NSaved=  9 BigCof=   13.34 CofMax=   10.00 Det=-1.69D-10
 Inversion failed.  Reducing to  8 matrices.
 Large coefficients: NSaved=  8 BigCof=   10.97 CofMax=   10.00 Det=-1.82D-10
 Inversion failed.  Reducing to  7 matrices.
 Large coefficients: NSaved=  7 BigCof=   10.86 CofMax=   10.00 Det=-1.84D-10
 Inversion failed.  Reducing to  6 matrices.
 Large coefficients: NSaved=  6 BigCof=   10.94 CofMax=   10.00 Det=-1.85D-10
 Inversion failed.  Reducing to  5 matrices.
 Large coefficients: NSaved=  5 BigCof=   10.95 CofMax=   10.00 Det=-1.85D-10
 Inversion failed.  Reducing to  4 matrices.
 Large coefficients: NSaved=  4 BigCof=   11.78 CofMax=   10.00 Det=-1.89D-10
 Inversion failed.  Reducing to  3 matrices.
 Large coefficients: NSaved=  3 BigCof=   11.80 CofMax=   10.00 Det=-1.90D-10
 Inversion failed.  Reducing to  2 matrices.
 Large coefficients: NSaved=  2 BigCof=   11.78 CofMax=   10.00 Det=-1.90D-10
 Coeff-Com: -0.108D+02 0.118D+02
 Coeff:     -0.108D+02 0.118D+02
 Gap=     0.290 Goal=   None    Shift=    0.000
 Gap=     0.288 Goal=   None    Shift=    0.000
 RMSDP=8.24D-07 MaxDP=7.90D-05 DE= 6.53D-07 OVMax= 3.81D-04

 Cycle  28  Pass 1  IDiag  1:
 RMSU=  4.22D-07    CP:  1.00D+00  1.68D+00  3.00D+00  3.00D+00  1.88D+00
                    CP:  6.31D-01  3.00D+00
 CoulSu:  requested number of processors reduced to:  11 ShMem   1 Linda.
 CoulSu:  requested number of processors reduced to:  11 ShMem   1 Linda.
 E= -3010.14324039632     Delta-E=        0.000000541117 Rises=F Damp=F
 DIIS: error= 3.97D-05 at cycle  28 NSaved=   3.
 NSaved= 3 IEnMin= 1 EnMin= -3010.14324159036     IErMin= 3 ErrMin= 3.97D-05
 ErrMax= 3.97D-05  0.00D+00 EMaxC= 1.00D-01 BMatC= 2.50D-06 BMatP= 2.46D-06
 IDIUse=1 WtCom= 1.00D+00 WtEn= 0.00D+00
 Large coefficients: NSaved=  3 BigCof=   17.35 CofMax=   10.00 Det=-1.63D-10
 Inversion failed.  Reducing to  2 matrices.
 Coeff-Com:  0.640D+00 0.360D+00
 Coeff:      0.640D+00 0.360D+00
 Gap=     0.291 Goal=   None    Shift=    0.000
 Gap=     0.288 Goal=   None    Shift=    0.000
 RMSDP=4.83D-06 MaxDP=6.26D-04 DE= 5.41D-07 OVMax= 2.73D-03

 Cycle  29  Pass 1  IDiag  1:
 RMSU=  2.13D-07    CP:  1.00D+00  1.70D+00  3.00D+00  3.00D+00  2.63D+00
                    CP:  2.23D+00 -3.00D+00  4.51D-01
 CoulSu:  requested number of processors reduced to:  11 ShMem   1 Linda.
 E= -3010.14324732028     Delta-E=       -0.000006923965 Rises=F Damp=F
 DIIS: error= 3.95D-05 at cycle  29 NSaved=   3.
 NSaved= 3 IEnMin= 3 EnMin= -3010.14324732028     IErMin= 3 ErrMin= 3.95D-05
 ErrMax= 3.95D-05  0.00D+00 EMaxC= 1.00D-01 BMatC= 2.49D-06 BMatP= 2.46D-06
 IDIUse=1 WtCom= 1.00D+00 WtEn= 0.00D+00
 Coeff-Com:  0.151D+01 0.662D+00-0.117D+01
 Coeff:      0.151D+01 0.662D+00-0.117D+01
 Gap=     0.290 Goal=   None    Shift=    0.000
 Gap=     0.288 Goal=   None    Shift=    0.000
 RMSDP=5.33D-06 MaxDP=7.14D-04 DE=-6.92D-06 OVMax= 3.00D-03

 Cycle  30  Pass 1  IDiag  1:
 RMSU=  1.93D-07    CP:  1.00D+00  1.69D+00  3.00D+00  3.00D+00  1.79D+00
                    CP:  5.14D-01  3.00D+00  7.76D-01 -1.25D-01
 E= -3010.14323964195     Delta-E=        0.000007678337 Rises=F Damp=F
 DIIS: error= 3.96D-05 at cycle  30 NSaved=   4.
 NSaved= 4 IEnMin= 3 EnMin= -3010.14324732028     IErMin= 3 ErrMin= 3.95D-05
 ErrMax= 3.96D-05  0.00D+00 EMaxC= 1.00D-01 BMatC= 2.47D-06 BMatP= 2.46D-06
 IDIUse=1 WtCom= 1.00D+00 WtEn= 0.00D+00
 Coeff-Com:  0.234D+01 0.834D+00-0.380D+01 0.163D+01
 Coeff:      0.234D+01 0.834D+00-0.380D+01 0.163D+01
 Gap=     0.290 Goal=   None    Shift=    0.000
 Gap=     0.288 Goal=   None    Shift=    0.000
 RMSDP=1.33D-05 MaxDP=1.76D-03 DE= 7.68D-06 OVMax= 7.45D-03

 Cycle  31  Pass 1  IDiag  1:
 RMSU=  2.38D-06    CP:  1.00D+00  1.67D+00  2.66D+00  1.52D-01 -5.41D-02
                    CP: -1.46D+00  3.00D+00  3.00D+00  1.20D+00  3.00D+00
 CoulSu:  requested number of processors reduced to:  11 ShMem   1 Linda.
 CoulSu:  requested number of processors reduced to:  11 ShMem   1 Linda.
 E= -3010.14322101093     Delta-E=        0.000018631014 Rises=F Damp=F
 DIIS: error= 3.99D-05 at cycle  31 NSaved=   5.
 NSaved= 5 IEnMin= 3 EnMin= -3010.14324732028     IErMin= 3 ErrMin= 3.95D-05
 ErrMax= 3.99D-05  0.00D+00 EMaxC= 1.00D-01 BMatC= 2.33D-06 BMatP= 2.46D-06
 IDIUse=1 WtCom= 1.00D+00 WtEn= 0.00D+00
 Coeff-Com: -0.184D+01 0.108D+00 0.381D+00 0.343D+00 0.200D+01
 Coeff:     -0.184D+01 0.108D+00 0.381D+00 0.343D+00 0.200D+01
 Gap=     0.290 Goal=   None    Shift=    0.000
 Gap=     0.288 Goal=   None    Shift=    0.000
 RMSDP=9.10D-06 MaxDP=1.10D-03 DE= 1.86D-05 OVMax= 4.85D-03

 Cycle  32  Pass 1  IDiag  1:
 RMSU=  2.90D-06    CP:  1.00D+00  1.64D+00  9.31D-01 -2.03D+00 -1.71D-01
                    CP: -2.89D+00  3.00D+00  3.00D+00  1.91D-01  3.00D+00
                    CP:  2.32D+00
 CoulSu:  requested number of processors reduced to:  11 ShMem   1 Linda.
 CoulSu:  requested number of processors reduced to:  11 ShMem   1 Linda.
 E= -3010.14320972336     Delta-E=        0.000011287577 Rises=F Damp=F
 DIIS: error= 3.93D-05 at cycle  32 NSaved=   6.
 NSaved= 6 IEnMin= 3 EnMin= -3010.14324732028     IErMin= 6 ErrMin= 3.93D-05
 ErrMax= 3.93D-05  0.00D+00 EMaxC= 1.00D-01 BMatC= 2.19D-06 BMatP= 2.33D-06
 IDIUse=1 WtCom= 1.00D+00 WtEn= 0.00D+00
 Coeff-Com: -0.394D+01-0.104D+01 0.467D+01-0.166D+01 0.870D+00 0.210D+01
 Coeff:     -0.394D+01-0.104D+01 0.467D+01-0.166D+01 0.870D+00 0.210D+01
 Gap=     0.290 Goal=   None    Shift=    0.000
 Gap=     0.288 Goal=   None    Shift=    0.000
 RMSDP=1.27D-05 MaxDP=1.37D-03 DE= 1.13D-05 OVMax= 6.42D-03

 Cycle  33  Pass 1  IDiag  1:
 RMSU=  5.74D-06    CP:  1.00D+00  1.62D+00 -1.17D+00 -3.00D+00 -3.47D-01
                    CP: -3.00D+00  3.00D+00  3.00D+00 -3.00D+00  3.00D+00
                    CP:  3.00D+00  2.83D+00
 CoulSu:  requested number of processors reduced to:  11 ShMem   1 Linda.
 CoulSu:  requested number of processors reduced to:  11 ShMem   1 Linda.
 E= -3010.14319715857     Delta-E=        0.000012564788 Rises=F Damp=F
 DIIS: error= 3.87D-05 at cycle  33 NSaved=   7.
 NSaved= 7 IEnMin= 3 EnMin= -3010.14324732028     IErMin= 7 ErrMin= 3.87D-05
 ErrMax= 3.87D-05  0.00D+00 EMaxC= 1.00D-01 BMatC= 2.02D-06 BMatP= 2.19D-06
 IDIUse=1 WtCom= 1.00D+00 WtEn= 0.00D+00
 Coeff-Com:  0.193D+01-0.182D+00-0.921D-01-0.679D+00-0.303D+01 0.139D+01
 Coeff-Com:  0.167D+01
 Coeff:      0.193D+01-0.182D+00-0.921D-01-0.679D+00-0.303D+01 0.139D+01
 Coeff:      0.167D+01
 Gap=     0.290 Goal=   None    Shift=    0.000
 Gap=     0.288 Goal=   None    Shift=    0.000
 RMSDP=1.17D-05 MaxDP=1.13D-03 DE= 1.26D-05 OVMax= 5.71D-03

 Cycle  34  Pass 1  IDiag  1:
 RMSU=  6.12D-06    CP:  1.00D+00  1.62D+00 -2.45D+00 -3.00D+00 -5.16D-01
                    CP: -3.00D+00  3.00D+00  3.00D+00 -3.00D+00  3.00D+00
                    CP:  3.00D+00  3.00D+00  2.39D+00
 CoulSu:  requested number of processors reduced to:  11 ShMem   1 Linda.
 CoulSu:  requested number of processors reduced to:  11 ShMem   1 Linda.
 E= -3010.14319127741     Delta-E=        0.000005881152 Rises=F Damp=F
 DIIS: error= 3.72D-05 at cycle  34 NSaved=   8.
 NSaved= 8 IEnMin= 3 EnMin= -3010.14324732028     IErMin= 8 ErrMin= 3.72D-05
 ErrMax= 3.72D-05  0.00D+00 EMaxC= 1.00D-01 BMatC= 1.80D-06 BMatP= 2.02D-06
 IDIUse=1 WtCom= 1.00D+00 WtEn= 0.00D+00
 Coeff-Com:  0.894D+01 0.129D+01-0.893D+01 0.255D+01-0.275D+01-0.289D+01
 Coeff-Com:  0.923D+00 0.187D+01
 Coeff:      0.894D+01 0.129D+01-0.893D+01 0.255D+01-0.275D+01-0.289D+01
 Coeff:      0.923D+00 0.187D+01
 Gap=     0.290 Goal=   None    Shift=    0.000
 Gap=     0.288 Goal=   None    Shift=    0.000
 RMSDP=1.23D-05 MaxDP=1.36D-03 DE= 5.88D-06 OVMax= 6.94D-03

 Cycle  35  Pass 1  IDiag  1:
 RMSU=  6.41D-06    CP:  1.00D+00  1.67D+00 -2.38D+00 -3.00D+00 -6.28D-01
                    CP: -3.00D+00  3.00D+00  3.00D+00 -3.00D+00  3.00D+00
                    CP:  3.00D+00  3.00D+00  3.00D+00  2.26D+00
 CoulSu:  requested number of processors reduced to:  11 ShMem   1 Linda.
 CoulSu:  requested number of processors reduced to:  11 ShMem   1 Linda.
 E= -3010.14319480637     Delta-E=       -0.000003528952 Rises=F Damp=F
 DIIS: error= 3.51D-05 at cycle  35 NSaved=   9.
 NSaved= 9 IEnMin= 3 EnMin= -3010.14324732028     IErMin= 9 ErrMin= 3.51D-05
 ErrMax= 3.51D-05  0.00D+00 EMaxC= 1.00D-01 BMatC= 1.45D-06 BMatP= 1.80D-06
 IDIUse=1 WtCom= 1.00D+00 WtEn= 0.00D+00
 Coeff-Com:  0.587D+01 0.126D+01-0.779D+01 0.294D+01 0.805D+00-0.365D+01
 Coeff-Com: -0.110D+01 0.100D+01 0.166D+01
 Coeff:      0.587D+01 0.126D+01-0.779D+01 0.294D+01 0.805D+00-0.365D+01
 Coeff:     -0.110D+01 0.100D+01 0.166D+01
 Gap=     0.290 Goal=   None    Shift=    0.000
 Gap=     0.288 Goal=   None    Shift=    0.000
 RMSDP=1.75D-05 MaxDP=2.33D-03 DE=-3.53D-06 OVMax= 1.12D-02

 Cycle  36  Pass 1  IDiag  1:
 RMSU=  5.74D-06    CP:  1.00D+00  1.77D+00 -1.04D+00 -3.00D+00 -7.05D-01
                    CP: -3.00D+00  3.00D+00  3.00D+00 -3.00D+00  3.00D+00
                    CP:  3.00D+00  3.00D+00  3.00D+00  3.00D+00  2.98D+00
 CoulSu:  requested number of processors reduced to:  11 ShMem   1 Linda.
 CoulSu:  requested number of processors reduced to:  11 ShMem   1 Linda.
 E= -3010.14320559697     Delta-E=       -0.000010790603 Rises=F Damp=F
 DIIS: error= 3.19D-05 at cycle  36 NSaved=  10.
 NSaved=10 IEnMin= 3 EnMin= -3010.14324732028     IErMin=10 ErrMin= 3.19D-05
 ErrMax= 3.19D-05  0.00D+00 EMaxC= 1.00D-01 BMatC= 1.12D-06 BMatP= 1.45D-06
 IDIUse=1 WtCom= 1.00D+00 WtEn= 0.00D+00
 Coeff-Com:  0.821D+00 0.430D+00-0.167D+01 0.780D+00-0.109D+00 0.102D+00
 Coeff-Com: -0.435D+00-0.508D+00 0.258D+00 0.133D+01
 Coeff:      0.821D+00 0.430D+00-0.167D+01 0.780D+00-0.109D+00 0.102D+00
 Coeff:     -0.435D+00-0.508D+00 0.258D+00 0.133D+01
 Gap=     0.290 Goal=   None    Shift=    0.000
 Gap=     0.288 Goal=   None    Shift=    0.000
 RMSDP=1.26D-05 MaxDP=1.77D-03 DE=-1.08D-05 OVMax= 8.50D-03

 Cycle  37  Pass 1  IDiag  1:
 RMSU=  8.44D-06    CP:  1.00D+00  1.84D+00  2.86D-01 -3.00D+00 -7.16D-01
                    CP: -3.00D+00  3.00D+00  3.00D+00 -3.00D+00  3.00D+00
                    CP:  3.00D+00  3.00D+00  3.00D+00  3.00D+00  3.00D+00
                    CP:  2.23D+00
 CoulSu:  requested number of processors reduced to:  11 ShMem   1 Linda.
 CoulSu:  requested number of processors reduced to:  11 ShMem   1 Linda.
 E= -3010.14321416917     Delta-E=       -0.000008572196 Rises=F Damp=F
 DIIS: error= 2.89D-05 at cycle  37 NSaved=  11.
 NSaved=11 IEnMin= 3 EnMin= -3010.14324732028     IErMin=11 ErrMin= 2.89D-05
 ErrMax= 2.89D-05  0.00D+00 EMaxC= 1.00D-01 BMatC= 9.11D-07 BMatP= 1.12D-06
 IDIUse=1 WtCom= 1.00D+00 WtEn= 0.00D+00
 Coeff-Com: -0.152D+01-0.587D+00 0.405D+01-0.222D+01-0.423D+01 0.450D+01
 Coeff-Com:  0.234D+01-0.118D+01-0.284D+01 0.294D+00 0.240D+01
 Coeff:     -0.152D+01-0.587D+00 0.405D+01-0.222D+01-0.423D+01 0.450D+01
 Coeff:      0.234D+01-0.118D+01-0.284D+01 0.294D+00 0.240D+01
 Gap=     0.291 Goal=   None    Shift=    0.000
 Gap=     0.288 Goal=   None    Shift=    0.000
 RMSDP=2.60D-05 MaxDP=3.89D-03 DE=-8.57D-06 OVMax= 1.78D-02

 Cycle  38  Pass 1  IDiag  1:
 RMSU=  1.06D-05    CP:  1.00D+00  2.00D+00  3.00D+00 -3.00D+00 -5.76D-01
                    CP: -3.00D+00  3.00D+00  3.00D+00 -3.00D+00  3.00D+00
                    CP:  3.00D+00  3.00D+00  3.00D+00  3.00D+00  3.00D+00
                    CP:  3.00D+00  3.00D+00
 CoulSu:  requested number of processors reduced to:  11 ShMem   1 Linda.
 CoulSu:  requested number of processors reduced to:  11 ShMem   1 Linda.
 E= -3010.14322955830     Delta-E=       -0.000015389138 Rises=F Damp=F
 DIIS: error= 2.13D-05 at cycle  38 NSaved=  12.
 NSaved=12 IEnMin= 3 EnMin= -3010.14324732028     IErMin=12 ErrMin= 2.13D-05
 ErrMax= 2.13D-05  0.00D+00 EMaxC= 1.00D-01 BMatC= 5.83D-07 BMatP= 9.11D-07
 IDIUse=1 WtCom= 1.00D+00 WtEn= 0.00D+00
 Coeff-Com:  0.217D+01-0.221D+00-0.221D+00-0.729D+00-0.295D+01 0.116D+01
 Coeff-Com:  0.172D+01 0.119D+00-0.150D+01-0.947D+00 0.118D+01 0.122D+01
 Coeff:      0.217D+01-0.221D+00-0.221D+00-0.729D+00-0.295D+01 0.116D+01
 Coeff:      0.172D+01 0.119D+00-0.150D+01-0.947D+00 0.118D+01 0.122D+01
 Gap=     0.291 Goal=   None    Shift=    0.000
 Gap=     0.289 Goal=   None    Shift=    0.000
 RMSDP=1.92D-05 MaxDP=2.96D-03 DE=-1.54D-05 OVMax= 1.33D-02

 Cycle  39  Pass 1  IDiag  1:
 RMSU=  1.15D-05    CP:  1.00D+00  2.12D+00  3.00D+00 -3.00D+00  9.88D-01
                    CP: -3.00D+00  3.00D+00  3.00D+00 -3.00D+00  3.00D+00
                    CP:  3.00D+00  3.00D+00  3.00D+00  3.00D+00  3.00D+00
                    CP:  3.00D+00  3.00D+00  2.12D+00
 CoulSu:  requested number of processors reduced to:  11 ShMem   1 Linda.
 CoulSu:  requested number of processors reduced to:  11 ShMem   1 Linda.
 E= -3010.14323800849     Delta-E=       -0.000008450183 Rises=F Damp=F
 DIIS: error= 1.45D-05 at cycle  39 NSaved=  13.
 NSaved=13 IEnMin= 3 EnMin= -3010.14324732028     IErMin=13 ErrMin= 1.45D-05
 ErrMax= 1.45D-05  0.00D+00 EMaxC= 1.00D-01 BMatC= 3.39D-07 BMatP= 5.83D-07
 IDIUse=1 WtCom= 1.00D+00 WtEn= 0.00D+00
 Coeff-Com:  0.669D+01 0.141D+01-0.911D+01 0.367D+01 0.175D+01-0.523D+01
 Coeff-Com: -0.166D+01 0.167D+01 0.258D+01-0.624D+00-0.214D+01 0.867D-01
 Coeff-Com:  0.190D+01
 Coeff:      0.669D+01 0.141D+01-0.911D+01 0.367D+01 0.175D+01-0.523D+01
 Coeff:     -0.166D+01 0.167D+01 0.258D+01-0.624D+00-0.214D+01 0.867D-01
 Coeff:      0.190D+01
 Gap=     0.291 Goal=   None    Shift=    0.000
 Gap=     0.289 Goal=   None    Shift=    0.000
 RMSDP=2.02D-05 MaxDP=3.21D-03 DE=-8.45D-06 OVMax= 1.41D-02

 Cycle  40  Pass 1  IDiag  1:
 RMSU=  3.94D-06    CP:  1.00D+00  2.23D+00  3.00D+00 -2.82D+00  2.70D+00
                    CP: -3.00D+00  3.00D+00  3.00D+00 -3.00D+00  3.00D+00
                    CP:  3.00D+00  3.00D+00  3.00D+00  3.00D+00  3.00D+00
                    CP:  3.00D+00  3.00D+00  3.00D+00  2.00D+00
 CoulSu:  requested number of processors reduced to:  11 ShMem   1 Linda.
 CoulSu:  requested number of processors reduced to:  11 ShMem   1 Linda.
 E= -3010.14324414862     Delta-E=       -0.000006140132 Rises=F Damp=F
 DIIS: error= 7.59D-06 at cycle  40 NSaved=  14.
 NSaved=14 IEnMin= 3 EnMin= -3010.14324732028     IErMin=14 ErrMin= 7.59D-06
 ErrMax= 7.59D-06  0.00D+00 EMaxC= 1.00D-01 BMatC= 1.47D-07 BMatP= 3.39D-07
 IDIUse=1 WtCom= 1.00D+00 WtEn= 0.00D+00
 Coeff-Com:  0.248D+01 0.758D+00-0.403D+01 0.185D+01 0.105D+01-0.218D+01
 Coeff-Com: -0.106D+01 0.531D+00 0.132D+01 0.175D+00-0.106D+01-0.511D+00
 Coeff-Com:  0.432D+00 0.125D+01
 Coeff:      0.248D+01 0.758D+00-0.403D+01 0.185D+01 0.105D+01-0.218D+01
 Coeff:     -0.106D+01 0.531D+00 0.132D+01 0.175D+00-0.106D+01-0.511D+00
 Coeff:      0.432D+00 0.125D+01
 Gap=     0.291 Goal=   None    Shift=    0.000
 Gap=     0.289 Goal=   None    Shift=    0.000
 RMSDP=1.15D-05 MaxDP=1.87D-03 DE=-6.14D-06 OVMax= 8.10D-03

 Cycle  41  Pass 1  IDiag  1:
 Restarting incremental Fock formation.
[...]
 628,-0.00001269,0.00002894,0.00009527,-0.00016987,0.00013749,-0.000167
 85,-0.00003189,-0.00001600,0.00002413,-0.00001398,-0.00000263,-0.00006
 421,0.00001574,0.00001104,-0.00000960,-0.00004865,-0.00004769,-0.00004
 646,0.00004522,0.00003651,0.00004858,-0.00021136,-0.00016053,0.0006043
 4,0.00015419,-0.00009659,0.00027999,0.00028624,0.00015268,-0.00025322,
 0.00061592,0.00060879,-0.00060700,-0.00002181,-0.00001704,0.00003416,-
 0.00009728,-0.00006434,0.00004429,-0.00008187,0.00005887,-0.00004168,-
 0.00005809,-0.00012794,0.00035826,-0.00016261,-0.00000325,0.00045812,-
 0.00017186,-0.00014036,0.00016854,0.00127043,-0.00076672,-0.00347047,0
 .00091433,0.00300369,0.00405358,-0.00081172,-0.00611798,0.00533938,0.0
 1539520,0.01397148,-0.00556567,-0.00139162,0.09824933,-0.12083772,-0.0
 1045322,-0.00481312,-0.00091631,0.00211468,-0.00017134,0.00031301,0.00
 151240,0.00099445,-0.00104946,-0.00633249,0.01489258,-0.01066668,0.096
 73098,-0.03136505,0.18854154,-0.00006656,0.00006359,0.00005580,-0.0000
 4028,-0.00001896,-0.00008316,0.00000957,-0.00001692,-0.00000735,0.0000
 3570,0.00001399,0.00010644,-0.00004755,-0.00006553,-0.00001290,0.00002
 632,0.00007926,-0.00000894,0.00005978,-0.00003096,-0.00000214,-0.00007
 912,-0.00003353,-0.00006579,0.00043422,-0.00041857,0.00008260,0.000058
 74,-0.00006918,0.00008455,-0.00000563,-0.00000923,0.00000127,0.0000082
 2,0.00000162,-0.00001665,-0.00003475,-0.00002336,0.00000192,0.00001497
 ,-0.00004978,-0.00004223,-0.00002578,0.00003852,0.00002492,-0.00000956
 ,-0.00000112,-0.00000222,-0.00000675,-0.00002240,0.00000297,0.00000197
 ,-0.00000651,-0.00002185,-0.00051230,0.00008912,-0.00035413,0.00000704
 ,-0.00000839,0.00008548,0.00108561,-0.00085677,-0.00014024,0.00010228,
 0.00002113,0.00013973,-0.00023425,0.00027195,0.00011224,-0.00023498,0.
 00018192,0.00003839,-0.00059655,0.00075099,0.00006750,-0.00002499,0.00
 002464,-0.00002853,-0.00012560,-0.00010066,-0.00011036,-0.00002147,-0.
 00000783,-0.00003950,0.00043179,0.00057838,0.00101915,-0.00064846,-0.0
 0117003,-0.00044134,0.00002346,-0.00077388,-0.00076992,0.00259522,-0.0
 0297247,0.00050004,-0.00296745,0.00138057,0.00207520,-0.00344864,0.018
 91001,-0.01179782,-0.01441665,-0.02701011,0.03255061,-0.00128590,0.003
 30845,-0.00150149,0.00083581,-0.00021481,-0.00004182,0.00070608,-0.000
 10968,-0.00054238,0.01903194,0.00004698,0.00003741,-0.00001112,0.00001
 456,-0.00000444,-0.00000716,-0.00001366,-0.00001257,0.00000021,0.00000
 350,0.00000974,0.00004279,0.00001908,-0.00000468,0.00001122,-0.0000026
 0,0.00002620,0.00002104,-0.00003276,-0.00008612,0.00003191,0.00009672,
 0.00002674,0.00020466,-0.00028920,0.00003566,-0.00030868,-0.00006594,-
 0.00003371,0.00023058,-0.00002223,0.00000399,0.00000571,-0.00000324,-0
 .00000693,0.00001646,0.00001622,0.00000509,-0.00002067,-0.00002435,0.0
 0003857,0.00001383,-0.00005063,0.00003323,-0.00000216,-0.00000158,0.00
 002395,0.00001179,-0.00000502,-0.00002182,-0.00001932,0.00001609,0.000
 00136,0.00001571,-0.00009539,0.00017678,0.00034861,0.00001198,-0.00001
 609,-0.00002729,-0.00001772,-0.00036457,-0.00039734,0.00020075,-0.0001
 0132,-0.00027982,0.00001322,0.00011273,0.00011818,0.00002849,0.0000805
 9,0.00002258,0.00012133,0.00002243,-0.00019935,-0.00006606,0.00001625,
 0.00007960,-0.00005791,0.00012259,0.00014293,-0.00004809,0.00003767,0.
 00008322,0.00081751,-0.00075825,-0.00129517,-0.00062333,0.00234381,-0.
 00044075,-0.00036552,-0.00005915,0.00022137,-0.00381677,0.00001299,-0.
 00008892,0.00171504,0.00106516,-0.00112768,-0.00010692,-0.01421021,0.0
 1360389,-0.00618053,-0.30148122,0.25315389,0.00106246,0.00099190,-0.00
 045538,-0.00057778,-0.00017586,0.00004457,-0.00006931,-0.00077268,0.00
 020647,0.00829714,0.31292607,0.00001315,-0.00001331,0.00003461,-0.0000
 1803,-0.00002543,-0.00007487,-0.00000377,-0.00002087,-0.00003573,0.000
 03450,0.00002194,0.00014121,-0.00001443,-0.00004501,0.00000928,0.00003
 107,0.00009274,-0.00003204,0.00000645,-0.00002490,0.00001324,0.0001099
 8,0.00010189,0.00029217,-0.00004459,-0.00052725,0.00082169,-0.00000080
 ,0.00001809,-0.00018169,-0.00002344,0.00000076,0.00001158,0.00001068,-
 0.00000361,-0.00000913,0.00000191,-0.00001316,-0.00000308,0.00000157,0
 .00000162,-0.00000874,-0.00001880,0.00002811,-0.00000682,-0.00000522,0
 .00001981,0.00001195,-0.00000098,-0.00002724,-0.00000488,0.00000756,-0
 .00001160,-0.00001773,-0.00053338,0.00047561,-0.00012946,0.00006575,-0
 .00001336,-0.00009003,0.00088117,-0.00128760,-0.00030799,0.00020384,-0
 .00020693,-0.00003447,-0.00019073,0.00038085,0.00018095,-0.00013700,0.
 00028370,0.00004346,-0.00015077,0.00085747,-0.00024769,-0.00006759,0.0
 0005862,0.00000765,-0.00004430,0.00003620,-0.00007123,-0.00004986,0.00
 005914,0.00000628,0.00006632,-0.00009794,0.00122254,0.00128173,-0.0017
 7095,-0.00316875,-0.00001833,-0.00023279,-0.00044362,0.00223754,-0.001
 09557,-0.00146735,-0.00035406,-0.00007330,0.00168200,0.00338365,-0.002
 63570,-0.00034287,0.01494806,0.26892910,-0.24056218,-0.00056825,0.0009
 4168,0.00074710,0.00021932,-0.00004508,-0.00025244,-0.00013075,0.00011
 772,-0.00038248,-0.02128304,-0.26432015,0.24194226,-0.00000368,0.00000
 566,0.00003409,-0.00001373,-0.00000072,-0.00002193,0.00000558,-0.00000
 292,0.00000923,0.00000702,0.00000199,0.00000964,-0.00002166,-0.0000149
 4,-0.00002089,0.00000476,0.00001451,0.00000427,0.00004636,0.00000582,-
 0.00001451,-0.00001875,0.00001471,-0.00001354,0.00003629,-0.00000652,0
 .00000314,0.00000214,-0.00001279,0.00000843,0.00000257,0.00000041,0.00
 000135,0.00000463,0.00000212,-0.00000669,-0.00000851,-0.00000811,0.000
 00202,0.00001500,-0.00003167,-0.00003083,-0.00000770,-0.00001646,0.000
 01691,-0.00000325,-0.00000007,0.00000024,-0.00000418,-0.00000585,0.000
 00047,-0.00000245,-0.00000374,-0.00000722,-0.00011146,-0.00000071,-0.0
 0012936,-0.00001290,0.00000224,0.00000344,0.00029720,-0.00002792,-0.00
 004288,0.00004746,0.00000782,0.00006837,-0.00006276,0.00001045,0.00001
 992,-0.00009807,-0.00001382,0.00002882,-0.00008031,0.00002795,0.000014
 65,-0.00000633,0.00000009,-0.00002394,0.00000351,-0.00007349,-0.000045
 97,-0.00000613,-0.00000537,-0.00002384,-0.00021159,0.00023949,0.000336
 52,0.00067820,-0.00049235,-0.00378952,-0.00007443,-0.00014238,-0.00017
 148,-0.00077150,-0.00136745,-0.00010681,0.00017303,0.00004369,0.000655
 21,0.00189471,0.00197635,-0.00238630,-0.00172241,0.00032380,-0.0001837
 4,-0.09286382,0.11505524,0.16702818,-0.00005663,-0.00005915,-0.0003041
 7,-0.00006988,0.00005635,-0.00010769,-0.00028551,0.00005669,0.00025631
 ,0.09339683,-0.00001294,0.00002161,-0.00000648,0.00000233,0.00000424,0
 .00000260,0.00000009,-0.00000012,0.00001134,-0.00000181,-0.00000166,-0
 .00001369,-0.00000131,0.00000657,-0.00000510,0.00000014,-0.00000787,-0
 .00000158,0.00001064,0.00001863,-0.00000479,-0.00000325,0.00000201,-0.
 00000803,0.00001916,0.00003554,0.00000725,-0.00000194,-0.00000634,0.00
 001238,0.00000290,-0.00000052,-0.00000266,-0.00000095,-0.00000012,0.00
 000201,-0.00000551,-0.00000131,-0.00000214,-0.00000183,-0.00001234,-0.
 00000455,-0.00000485,-0.00000972,-0.00000340,0.00000270,-0.00000374,-0
 .00000341,-0.00000455,0.00000152,-0.00000157,-0.00000052,0.00000134,0.
 00000292,0.00002492,-0.00004886,0.00001973,-0.00001196,0.00000303,0.00
 000445,-0.00002637,0.00017473,0.00000635,0.00000747,0.00005408,0.00001
 300,0.00000423,-0.00004416,-0.00000389,-0.00001112,-0.00005940,0.00001
 390,0.00001012,-0.00008138,-0.00000630,0.00000008,-0.00000879,0.000002
 40,0.00000994,-0.00001359,0.00001862,0.00000022,-0.00000870,0.00000161
 ,0.00002964,0.00000926,-0.00011036,0.00038678,0.00048616,0.00087463,-0
 .00004146,-0.00007343,-0.00004148,-0.00128206,-0.00258991,0.00155781,0
 .00018465,0.00005251,0.00003728,-0.00369162,0.00306489,0.01461742,0.00
 015141,-0.00145569,-0.00113799,0.12004081,-0.15856631,-0.21633372,-0.0
 0001094,-0.00007654,-0.00007082,-0.00007550,-0.00017312,0.00009764,-0.
 00002708,-0.00021366,-0.00001943,-0.11561570,0.15942514,0.00005818,-0.
 00001145,-0.00000084,0.00000588,-0.00000454,-0.00000698,-0.00000351,-0
 .00000694,-0.00000364,0.00000131,0.00000897,0.00002005,0.00000562,-0.0
 0001093,-0.00000246,-0.00000445,0.00001795,0.00000645,0.00000194,-0.00
 002645,-0.00000454,0.00001411,0.00000758,0.00001064,-0.00001064,-0.000
 04055,-0.00001782,-0.00000672,-0.00000171,-0.00000705,-0.00000779,0.00
 000713,0.00000352,0.00000054,-0.00000355,0.00000711,0.00001731,0.00000
 610,-0.00000639,0.00000084,0.00001570,-0.00001912,0.00000109,-0.000040
 91,-0.00000285,-0.00000189,0.00000880,0.00000558,-0.00000112,-0.000011
 03,-0.00000825,0.00000746,0.00000115,0.00000519,-0.00001169,0.00005586
 ,0.00009554,0.00000893,0.00000214,-0.00002047,0.00005094,-0.00018521,-
 0.00015812,0.00006018,-0.00006621,-0.00013635,-0.00000299,0.00005074,0
 .00005705,-0.00001427,0.00004842,0.00002074,-0.00003627,0.00009974,0.0
 0001686,-0.00002787,0.00000148,0.00002783,0.00007228,0.00005450,0.0001
 3106,-0.00001438,0.00002277,0.00004261,-0.00034702,-0.00010856,-0.0005
 6706,-0.00040546,0.00132103,-0.00117632,-0.00015034,0.00025253,0.00034
 373,-0.00185616,0.00001314,0.00135434,0.00134087,0.00001396,-0.0009253
 3,0.01060927,-0.01227867,-0.02316421,0.00092204,-0.00295841,0.00392640
 ,0.15120548,-0.18677203,-0.30546840,-0.00049812,0.00001563,-0.00003724
 ,-0.00026204,-0.00015250,0.00022113,0.00036879,0.00021979,0.00063301,-
 0.16130022,0.20040444,0.32470521,0.00022276,-0.00001781,-0.00002485,0.
 00001252,-0.00000072,0.00001165,-0.00000605,-0.00000584,0.00000009,-0.
 00000509,0.00000675,0.00000169,0.00001695,0.00000517,0.00000880,-0.000
 00595,0.00000448,0.00000406,-0.00002708,-0.00002222,0.00001488,0.00001
 563,-0.00000428,0.00000839,-0.00002394,0.00001095,0.00001205,-0.000005
 31,-0.00000434,0.00000127,-0.00000993,0.00001888,0.00001644,-0.0000082
 0,-0.00000320,0.00001594,0.00003616,0.00000244,-0.00002714,-0.00001782
 ,0.00003522,0.00001350,-0.00003053,-0.00000444,-0.00003096,0.00000189,
 0.00001726,0.00000739,-0.00000510,-0.00001361,-0.00001431,0.00001513,0
 .00000589,0.00001652,0.00006947,0.00008248,0.00028979,0.00000777,0.000
 00126,-0.00003035,-0.00016989,-0.00001268,-0.00014301,0.00012739,-0.00
 001670,-0.00023439,0.00005066,0.00000376,0.00004197,0.00005208,0.00000
 938,0.00001485,0.00002953,0.00000720,0.00000465,-0.00006857,-0.0000115
 6,0.00006985,-0.00000560,0.00009751,0.00022996,-0.00003490,0.00001171,
 0.00007757,0.00010647,-0.00058138,-0.00123029,0.00037652,0.00087329,0.
 00117891,-0.00095121,-0.00048712,0.00099017,0.00381822,-0.00119102,0.0
 0210546,-0.00785172,0.01395214,-0.02468235,-0.00350291,-0.00142346,-0.
 00013695,0.00088334,-0.00019864,-0.00001487,0.00071416,0.00027745,-0.0
 0025632,-0.01847364,-0.00376931,0.00217912,-0.00187425,0.00133181,-0.0
 0233667,-0.00017291,0.00013265,-0.00007091,-0.00009301,-0.00002077,0.0
 0015712,0.02713454,-0.00014953,0.00066047,-0.00033570,0.00000480,0.000
 00080,0.00000635,-0.00000220,0.00000022,0.00000184,-0.00000417,-0.0000
 0213,-0.00000863,0.00000188,0.00000340,-0.00000266,-0.00000317,-0.0000
 0886,-0.00000334,0.00000160,0.00000891,-0.00000040,0.00000184,-0.00000
 476,-0.00000364,0.00000183,0.00000764,-0.00000326,-0.00000217,-0.00000
 121,0.00000723,0.00000631,-0.00001027,-0.00002303,0.00000108,-0.000004
 35,0.00000887,-0.00001449,0.00001660,0.00000773,0.00005237,-0.00003369
 ,-0.00002304,0.00012007,-0.00005833,-0.00007318,-0.00000174,-0.0000062
 9,-0.00000938,-0.00000112,0.00000421,-0.00000181,0.00000334,0.00000460
 ,0.00000934,0.00008691,-0.00008759,-0.00001290,0.00000522,-0.00001311,
 0.00001955,-0.00008590,0.00006348,0.00002613,-0.00005446,0.00009078,-0
 .00007084,0.00002035,-0.00001598,-0.00000591,0.00000954,-0.00001736,0.
 00000270,0.00002421,-0.00003106,-0.00000693,0.00002192,-0.00002023,0.0
 0003166,-0.00005845,-0.00009262,0.00012319,0.00001913,-0.00001980,0.00
 002653,-0.00010634,0.00042052,0.00021401,0.00002762,-0.00070410,-0.000
 38646,-0.00188644,-0.00256344,-0.00081595,-0.00301861,-0.00113758,-0.0
 0080212,-0.00157459,-0.00091455,0.00291876,0.00109556,0.00178233,-0.00
 025320,-0.00035901,-0.00018676,-0.00000135,-0.00003867,-0.00042897,0.0
 0010604,0.01358529,-0.16410770,0.24401621,0.00112901,0.00060725,0.0013
 9783,0.00010363,-0.00000751,0.00006707,0.00008655,0.00006760,-0.000014
 63,-0.00899161,0.16603711,-0.00013389,0.00009754,-0.00079734,0.0000201
 5,0.00000014,0.00002409,-0.00001011,-0.00000092,-0.00000734,-0.0000110
 1,0.00000226,-0.00000872,0.00002291,0.00001254,0.00000161,-0.00001519,
 -0.00001085,0.00000371,-0.00002174,-0.00001402,0.00001406,0.00002151,-
 0.00001303,-0.00000012,-0.00001756,0.00001058,0.00000592,-0.00001050,0
 .00000626,0.00000127,-0.00000549,0.00000391,-0.00000553,0.00000528,0.0
 0000411,0.00003114,0.00004270,0.00004809,-0.00001081,0.00003568,0.0000
 4490,0.00004798,0.00007046,-0.00008676,-0.00005261,-0.00000226,0.00000
 587,0.00000117,0.00000608,0.00000163,-0.00000515,0.00000811,0.00000325
 ,0.00001684,0.00026449,0.00004298,0.00022138,-0.00000754,0.00000939,-0
 .00004757,-0.00035153,0.00003674,-0.00004231,-0.00009263,-0.00008157,-
 0.00023094,0.00009221,-0.00000967,0.00002214,0.00009192,0.00001302,-0.
 00000080,0.00007398,-0.00002418,-0.00000191,-0.00000673,-0.00002824,0.
 00005585,0.00005434,0.00014057,0.00014298,0.00001846,0.00002087,0.0000
 5628,-0.00078205,-0.00032330,-0.00020342,0.00042083,0.00011823,-0.0002
 9699,0.00112936,-0.00036115,0.00186124,0.00380761,-0.00047218,-0.00129
 779,-0.00081589,0.00816279,-0.01023093,-0.00130086,-0.00072355,0.00170
 066,0.00042642,-0.00006357,-0.00030915,-0.00022598,0.00011765,-0.00082
 825,-0.02433779,0.23948533,-0.37778123,-0.00029907,-0.00054869,0.00215
 069,-0.00010310,0.00009690,0.00000503,0.00017917,0.00002865,0.00010427
 ,0.02170005,-0.24601785,0.38598566,0.00020477,-0.00023749,0.00008674,0
 .00000018,-0.00000256,-0.00000040,0.,-0.00000525,-0.00000700,0.0000016
 8,0.00000669,0.00000921,0.00000399,-0.00000384,0.00000257,-0.00000104,
 0.00001041,-0.00000439,-0.00000941,-0.00000989,0.00000538,0.00000781,0
 .00000682,0.00000223,-0.00000811,-0.00001543,0.00001522,-0.00000102,0.
 00000325,-0.00003097,-0.00000789,0.00001303,0.00000885,0.00000273,0.00
 000053,0.00001220,0.00004173,-0.00000100,-0.00004363,-0.00000826,0.000
 02217,0.00001591,-0.00001053,-0.00000699,-0.00002706,0.00000089,0.0000
 1345,0.00000513,-0.00000713,-0.00001493,-0.00001119,0.00001132,0.00000
 331,0.00000660,-0.00002069,0.00004190,0.00011720,0.00000858,-0.0000203
 0,0.00000049,0.00001231,-0.00011307,-0.00007785,0.00015026,-0.00003616
 ,-0.00021502,0.00000703,0.00002707,0.00003054,0.00000778,0.00003158,0.
 00001501,-0.00001038,0.00004957,0.00003966,-0.00008428,-0.00000489,0.0
 0007997,0.00001408,0.00007389,0.00011524,-0.00003995,0.00000108,0.0000
 4904,-0.00025173,-0.00011384,-0.00033122,0.00007277,0.00029476,0.00027
 292,0.00153444,0.00396214,-0.00019076,0.00045063,0.00091509,0.00058098
 ,0.00004926,-0.00187500,-0.00351944,-0.00032670,-0.00070980,0.00014600
 ,0.00011104,0.00028352,-0.00000379,-0.00000628,0.00014527,-0.00015296,
 -0.00199834,0.00079626,-0.00082597,-0.22553883,-0.24936300,-0.09577836
 ,-0.00017709,-0.00013391,-0.00003153,-0.00000464,-0.00003417,0.0000527
 5,-0.00034762,-0.00005741,0.00005920,0.22616666,-0.00034118,-0.0003963
 9,-0.00012328,0.00001536,0.00000087,0.00001722,-0.00000945,-0.00000103
 ,0.00000111,-0.00000968,-0.00000138,-0.00000981,0.00001819,0.00001530,
 -0.00000017,-0.00001131,-0.00000957,0.00000280,-0.00001820,-0.00001590
 ,0.00001260,0.00002311,-0.00000459,0.00000645,-0.00002561,0.00001612,0
 .00001442,-0.00002231,0.00000786,0.00000669,-0.00000021,0.00001142,0.0
 0000285,0.00000853,0.00000230,0.00001904,0.00002589,0.00001381,0.00000
 616,0.00000291,0.00001994,0.00000689,0.00000766,-0.00000401,0.00000401
 ,-0.00000264,0.00000660,0.00000300,0.00000678,0.00000435,-0.00000170,0
 .00000295,-0.00000174,0.00001008,0.00015651,0.00007883,0.00021162,-0.0
 0002246,0.00001194,-0.00010105,-0.00029561,0.00008072,-0.00009358,-0.0
 0007540,-0.00006584,-0.00005988,0.00007260,-0.00001565,0.00002589,0.00
 007917,-0.00000510,0.00000837,0.00008075,-0.00004293,-0.00001787,-0.00
 000552,-0.00001530,-0.00000691,-0.00001353,0.00006124,0.00006067,0.000
 01973,0.00003145,0.00002788,0.00006562,-0.00043525,-0.00036188,0.00024
 924,0.00037973,0.00032052,0.00030806,-0.00245946,0.00109386,0.00259058
 ,0.00115669,-0.00151029,-0.01639357,-0.02025836,-0.00283732,-0.0017227
 1,-0.00052474,0.00045207,0.00047088,-0.00026481,-0.00009559,0.00027091
 ,0.00009888,-0.00024788,-0.00065199,0.00335812,-0.00338305,-0.23067722
 ,-0.27334420,-0.09078192,-0.00009718,0.00017987,0.00001908,-0.00002982
 ,0.00002844,0.00004474,-0.00010694,0.00070233,0.00026531,0.24605711,0.
 29159943,0.00000299,0.00017949,0.00011017,-0.00000136,0.00000066,-0.00
 000585,0.00000033,0.00000558,-0.00000772,0.00000050,-0.00000138,-0.000
 00123,-0.00000296,-0.00000360,0.00000012,0.00000274,-0.00000375,0.0000
 0400,0.00000358,0.00000840,-0.00000587,-0.00000376,0.00000129,-0.00000
 200,0.00000700,0.00000135,-0.00001137,0.00000281,0.00000533,0.00000809
 ,0.00000904,0.00000957,-0.00000121,-0.00000777,-0.00001089,-0.00002833
 ,-0.00002126,-0.00000801,0.00006042,0.00000335,-0.00000465,-0.00000952
 ,-0.00000263,-0.00000249,0.00002392,-0.00000754,-0.00001099,-0.0000053
 8,0.00001091,0.00001387,0.00001201,-0.00001184,-0.00000624,-0.00001092
 ,-0.00001098,-0.00006870,-0.00018699,0.00001076,0.00000908,0.00011402,
 0.00004871,-0.00002587,0.00007728,-0.00020038,-0.00002382,0.00018641,-
 0.00001903,-0.00000175,-0.00001690,-0.00000943,0.00000181,-0.00001221,
 -0.00001049,-0.00001058,-0.00000906,0.00008247,0.00002244,-0.00008379,
 0.00002837,-0.00002183,-0.00010364,0.00005891,0.00000508,-0.00004618,0
 .00003749,0.00021451,0.00025019,-0.00003425,-0.00022128,-0.00029524,-0
 .00069949,0.00029666,0.00046814,0.00022009,0.00046169,-0.00318377,0.01
 075195,0.01877375,0.00040204,0.00004156,0.00028514,0.00002714,-0.00009
 945,-0.00014786,-0.00007291,0.00001384,-0.00000505,-0.00015013,-0.0002
 2967,-0.00184941,-0.00053452,-0.10969934,-0.11483961,-0.05784319,0.000
 09932,0.00005303,0.00006925,0.00005115,0.00004498,-0.00000488,0.000061
 25,-0.00011482,-0.00029507,0.09952251,0.09698886,0.06111466\\-0.000000
 43,0.00000085,-0.00000024,-0.00000027,-0.00000059,0.00000146,-0.000001
 23,0.00000114,-0.00000022,0.00000058,0.00000067,-0.00000070,-0.0000005
 8,0.00000127,-0.00000035,-0.00000060,0.,0.00000079,0.,0.00000032,-0.00
 000039,0.00000012,-0.00000038,0.00000066,0.00000128,-0.00000148,0.0000
 0179,-0.00000044,0.00000006,-0.00000032,-0.00000036,-0.00000161,0.0000
 0066,0.00000102,-0.00000095,-0.00000029,0.00000041,-0.00000106,-0.0000
 0012,0.00000248,-0.00000138,0.00000062,0.00000080,0.00000048,0.0000010
 0,-0.00000095,-0.00000008,0.,-0.00000031,0.00000032,0.00000092,-0.0000
 0030,0.00000045,-0.00000009,-0.00000358,-0.00000029,0.00000384,0.00000
 017,-0.00000037,-0.00000182,0.00000258,0.00000021,-0.00000214,0.000004
 34,0.00000093,0.00000194,0.00000121,-0.00000154,-0.00000037,-0.0000003
 1,-0.00000121,0.,-0.00000113,0.00000224,-0.00000082,-0.00000123,0.0000
 0384,-0.00000049,-0.00000367,0.00000065,-0.00000304,0.00000029,-0.0000
 0014,-0.00000086,0.00000056,-0.00000350,-0.00000015,-0.00000098,0.0000
 0167,-0.00000133,0.00000097,-0.00000097,-0.00000018,-0.00000138,0.0000
 0300,0.00000180,0.00000106,-0.00000011,-0.00000262,0.00000058,-0.00000
 041,0.00000099,0.00123278,0.00333176,-0.00096334,-0.00164643,0.0042534
 7,0.00184157,-0.00321999,-0.00217200,0.00140097,0.00430814,0.00055159,
 0.00486198,0.00014324,-0.00514943,0.00299020,0.00210053,-0.00212455,-0
 .00504289,0.00009922,0.00255805,-0.00262351,-0.00301818,-0.00125093,-0
 .00246492\\\@


 THERE ARE TWO THINGS THAT EVERYBODY THINKS THEY CAN DO BETTER THAN
 ANYONE ELSE - PUNCH THE FIRE, AND EDIT A DAILY PAPER.
 -- UNCLE ESEK, "CENTURY MAGAZINE", 1885
 Job cpu time:       4 days 19 hours 37 minutes 23.9 seconds.
 File lengths (MBytes):  RWF=   2361 Int=      0 D2E=      0 Chk=     24 Scr=      1
 Normal termination of Gaussian 09 at Tue Jul 18 02:16:02 2017.
415853.608u 390.591s 15:56:14.58 725.4%	0+0k 661528+12971120io 23pf+0w
