 Entering Gaussian System, Link 0=/sw/chem/g09/g09
 Initial command:
 /sw/chem/g09/l1.exe "/scratch_local/craigv/IIIFreqplus1/Gau-14982.inp" -scrdir="/scratch_local/craigv/IIIFreqplus1/"
 Entering Link 1 = /sw/chem/g09/l1.exe PID=     14983.
  
 Copyright (c) 1988,1990,1992,1993,1995,1998,2003,2009,2013,
            Gaussian, Inc.  All Rights Reserved.
  
 This is part of the Gaussian(R) 09 program.  It is based on
 the Gaussian(R) 03 system (copyright 2003, Gaussian, Inc.),
 the Gaussian(R) 98 system (copyright 1998, Gaussian, Inc.),
 the Gaussian(R) 94 system (copyright 1995, Gaussian, Inc.),
 the Gaussian 92(TM) system (copyright 1992, Gaussian, Inc.),
 the Gaussian 90(TM) system (copyright 1990, Gaussian, Inc.),
 the Gaussian 88(TM) system (copyright 1988, Gaussian, Inc.),
 the Gaussian 86(TM) system (copyright 1986, Carnegie Mellon
 University), and the Gaussian 82(TM) system (copyright 1983,
 Carnegie Mellon University). Gaussian is a federally registered
 trademark of Gaussian, Inc.
  
 This software contains proprietary and confidential information,
 including trade secrets, belonging to Gaussian, Inc.
  
 This software is provided under written license and may be
 used, copied, transmitted, or stored only in accord with that
 written license.
  
 The following legend is applicable only to US Government
 contracts under FAR:
  
                    RESTRICTED RIGHTS LEGEND
  
 Use, reproduction and disclosure by the US Government is
 subject to restrictions as set forth in subparagraphs (a)
 and (c) of the Commercial Computer Software - Restricted
 Rights clause in FAR 52.227-19.
  
 Gaussian, Inc.
 340 Quinnipiac St., Bldg. 40, Wallingford CT 06492
  
  
 ---------------------------------------------------------------
 Warning -- This program may not be used in any manner that
 competes with the business of Gaussian, Inc. or will provide
 assistance to any competitor of Gaussian, Inc.  The licensee
 of this program is prohibited from giving any competitor of
 Gaussian, Inc. access to this program.  By using this program,
 the user acknowledges that Gaussian, Inc. is engaged in the
 business of creating and licensing software in the field of
 computational chemistry and represents and warrants to the
 licensee that it is not a competitor of Gaussian, Inc. and that
 it will not use this program in any manner prohibited above.
 ---------------------------------------------------------------
  

 Cite this work as:
 Gaussian 09, Revision D.01,
 M. J. Frisch, G. W. Trucks, H. B. Schlegel, G. E. Scuseria, 
 M. A. Robb, J. R. Cheeseman, G. Scalmani, V. Barone, B. Mennucci, 
 G. A. Petersson, H. Nakatsuji, M. Caricato, X. Li, H. P. Hratchian, 
 A. F. Izmaylov, J. Bloino, G. Zheng, J. L. Sonnenberg, M. Hada, 
 M. Ehara, K. Toyota, R. Fukuda, J. Hasegawa, M. Ishida, T. Nakajima, 
 Y. Honda, O. Kitao, H. Nakai, T. Vreven, J. A. Montgomery, Jr., 
 J. E. Peralta, F. Ogliaro, M. Bearpark, J. J. Heyd, E. Brothers, 
 K. N. Kudin, V. N. Staroverov, T. Keith, R. Kobayashi, J. Normand, 
 K. Raghavachari, A. Rendell, J. C. Burant, S. S. Iyengar, J. Tomasi, 
 M. Cossi, N. Rega, J. M. Millam, M. Klene, J. E. Knox, J. B. Cross, 
 V. Bakken, C. Adamo, J. Jaramillo, R. Gomperts, R. E. Stratmann, 
 O. Yazyev, A. J. Austin, R. Cammi, C. Pomelli, J. W. Ochterski, 
 R. L. Martin, K. Morokuma, V. G. Zakrzewski, G. A. Voth, 
 P. Salvador, J. J. Dannenberg, S. Dapprich, A. D. Daniels, 
 O. Farkas, J. B. Foresman, J. V. Ortiz, J. Cioslowski, 
 and D. J. Fox, Gaussian, Inc., Wallingford CT, 2013.
 
 ******************************************
 Gaussian 09:  ES64L-G09RevD.01 24-Apr-2013
                16-Jul-2017 
 ******************************************
 %nprocshared=12
 Will use up to   12 processors via shared memory.
 %chk=/home/craigv/homolysis/Monoi/III/IIIplus1Freq.chk
 ----------------------------------------------------------------------
 #p freq temp=373.15 wb97xd/gen nosymm scf(maxcycles=1000) punch=deriva
 tives
 ----------------------------------------------------------------------
 1/10=4,30=1,38=1,112=373150/1,3;
 2/12=2,15=1,17=6,18=5,40=1/2;
 3/5=7,11=2,16=1,25=1,30=1,71=2,74=-58,140=1/1,2,3;
 4//1;
 5/5=2,7=1000,38=5,98=1/2;
 8/6=4,10=90,11=11/1;
 11/6=1,8=1,9=11,15=111,16=1,31=1/1,2,10;
 10/6=1,31=1/2;
 6/7=2,8=2,9=2,10=2,18=1,28=1/1;
 7/8=1,10=1,25=1,30=1/1,2,3,16;
 1/10=4,30=1/3;
 99/10=4/99;
 Leave Link    1 at Sun Jul 16 12:30:50 2017, MaxMem=           0 cpu:         0.9
 (Enter /sw/chem/g09/l101.exe)
 -------------------
 Title Card Required
 -------------------
 Symbolic Z-matrix:
 Charge =  0 Multiplicity = 2
 H                    -2.83488   3.96438   2.81608 
 H                     3.65362   3.76838   6.60422 
 H                     2.10886   3.09064   7.13085 
 H                     2.30649   4.84095   7.00098 
 H                     3.78749   5.31737   3.90975 
 H                     2.30165   6.23597   4.1308 
 H                     2.50614   5.19165   2.7136 
 H                     3.72116   2.11931   4.08943 
 H                     2.4391    2.23678   2.87916 
 H                     2.16251   1.33901   4.38343 
 H                    -3.23487   5.59543   5.9828 
 H                    -2.38108   4.28483   6.80762 
 H                    -3.02656   4.02366   5.19515 
 H                    -0.57029   7.1144    3.35329 
 H                    -2.17894   6.36524   3.12878 
 H                    -0.64515   7.37855   6.49232 
 H                     0.92762   6.8523    5.89023 
 H                     0.17727   6.00493   7.24878 
 C                     0.12688   3.8371    4.55934 
 H                    -0.35238   2.88856   4.819 
 Si                    1.98943   3.80705   4.74487 
 Si                   -0.90411   5.34422   5.10284 
 C                     2.56899   3.88674   6.54087 
 C                     2.70227   5.27955   3.78724 
 C                     2.64208   2.22146   3.95313 
 C                    -2.54323   4.76302   5.83923 
 C                    -1.13228   6.17624   3.39237 
 C                    -0.0221    6.50305   6.29814 
 Cr                   -0.27082   4.51849   2.76826 
 O                     0.57256   4.13005   1.16153 
 O                    -2.06646   3.59793   2.37118 
 O                    -1.09355   2.2312    0.33501 
 Si                   -2.3334    2.26084   1.36675 
 Si                    0.37297   3.00996   0.02535 
 O(Iso=10000000)       1.52869   1.82421  -0.01744 
 O(Iso=10000000)       0.32946   3.67719  -1.4816 
 O(Iso=10000000)      -3.79825   2.42211   0.62383 
 O(Iso=10000000)      -2.43806   0.96281   2.36817 
 H(Iso=10000000)       1.47199   1.11299   0.62636 
 H(Iso=10000000)       0.72111   3.16328  -2.19328 
 H(Iso=10000000)      -3.81377   2.94949  -0.17951 
 H(Iso=10000000)      -3.05849   0.28783   2.07926 
 
 NAtoms=     42 NQM=       42 NQMF=       0 NMMI=      0 NMMIF=      0
                NMic=       0 NMicF=      0.
                    Isotopes and Nuclear Properties:
 (Nuclear quadrupole moments (NQMom) in fm**2, nuclear magnetic moments (NMagM)
  in nuclear magnetons)

  Atom         1           2           3           4           5           6           7           8           9          10
 IAtWgt=           1           1           1           1           1           1           1           1           1           1
 AtmWgt=   1.0078250   1.0078250   1.0078250   1.0078250   1.0078250   1.0078250   1.0078250   1.0078250   1.0078250   1.0078250
 NucSpn=           1           1           1           1           1           1           1           1           1           1
 AtZEff=   0.0000000   0.0000000   0.0000000   0.0000000   0.0000000   0.0000000   0.0000000   0.0000000   0.0000000   0.0000000
 NQMom=    0.0000000   0.0000000   0.0000000   0.0000000   0.0000000   0.0000000   0.0000000   0.0000000   0.0000000   0.0000000
 NMagM=    2.7928460   2.7928460   2.7928460   2.7928460   2.7928460   2.7928460   2.7928460   2.7928460   2.7928460   2.7928460
 AtZNuc=   1.0000000   1.0000000   1.0000000   1.0000000   1.0000000   1.0000000   1.0000000   1.0000000   1.0000000   1.0000000

  Atom        11          12          13          14          15          16          17          18          19          20
 IAtWgt=           1           1           1           1           1           1           1           1          12           1
 AtmWgt=   1.0078250   1.0078250   1.0078250   1.0078250   1.0078250   1.0078250   1.0078250   1.0078250  12.0000000   1.0078250
 NucSpn=           1           1           1           1           1           1           1           1           0           1
 AtZEff=   0.0000000   0.0000000   0.0000000   0.0000000   0.0000000   0.0000000   0.0000000   0.0000000   0.0000000   0.0000000
 NQMom=    0.0000000   0.0000000   0.0000000   0.0000000   0.0000000   0.0000000   0.0000000   0.0000000   0.0000000   0.0000000
 NMagM=    2.7928460   2.7928460   2.7928460   2.7928460   2.7928460   2.7928460   2.7928460   2.7928460   0.0000000   2.7928460
 AtZNuc=   1.0000000   1.0000000   1.0000000   1.0000000   1.0000000   1.0000000   1.0000000   1.0000000   6.0000000   1.0000000

  Atom        21          22          23          24          25          26          27          28          29          30
 IAtWgt=          28          28          12          12          12          12          12          12          52          16
 AtmWgt=  27.9769284  27.9769284  12.0000000  12.0000000  12.0000000  12.0000000  12.0000000  12.0000000  51.9405097  15.9949146
 NucSpn=           0           0           0           0           0           0           0           0           0           0
 AtZEff=   0.0000000   0.0000000   0.0000000   0.0000000   0.0000000   0.0000000   0.0000000   0.0000000   0.0000000   0.0000000
 NQMom=    0.0000000   0.0000000   0.0000000   0.0000000   0.0000000   0.0000000   0.0000000   0.0000000   0.0000000   0.0000000
 NMagM=    0.0000000   0.0000000   0.0000000   0.0000000   0.0000000   0.0000000   0.0000000   0.0000000   0.0000000   0.0000000
 AtZNuc=  14.0000000  14.0000000   6.0000000   6.0000000   6.0000000   6.0000000   6.0000000   6.0000000  24.0000000   8.0000000

  Atom        31          32          33          34          35          36          37          38          39          40
 IAtWgt=          16          16          28          28    10000000    10000000    10000000    10000000    10000000    10000000
 AtmWgt=  15.9949146  15.9949146  27.9769284  27.9769284************************************************************************
 NucSpn=           0           0           0           0           0           0           0           0           0           0
 AtZEff=   0.0000000   0.0000000   0.0000000   0.0000000   0.0000000   0.0000000   0.0000000   0.0000000   0.0000000   0.0000000
 NQMom=    0.0000000   0.0000000   0.0000000   0.0000000   0.0000000   0.0000000   0.0000000   0.0000000   0.0000000   0.0000000
 NMagM=    0.0000000   0.0000000   0.0000000   0.0000000   0.0000000   0.0000000   0.0000000   0.0000000   0.0000000   0.0000000
 AtZNuc=   8.0000000   8.0000000  14.0000000  14.0000000   8.0000000   8.0000000   8.0000000   8.0000000   1.0000000   1.0000000

  Atom        41          42
 IAtWgt=    10000000    10000000
 AtmWgt=************************
 NucSpn=           0           0
 AtZEff=   0.0000000   0.0000000
 NQMom=    0.0000000   0.0000000
 NMagM=    0.0000000   0.0000000
 AtZNuc=   1.0000000   1.0000000
 Leave Link  101 at Sun Jul 16 12:30:50 2017, MaxMem=    33554432 cpu:         0.2
 (Enter /sw/chem/g09/l103.exe)

 GradGradGradGradGradGradGradGradGradGradGradGradGradGradGradGradGradGrad
 Berny optimization.
 Initialization pass.
 Trust Radius=3.00D-01 FncErr=1.00D-07 GrdErr=1.00D-07
 Number of steps in this run=      2 maximum allowed number of steps=      2.
 GradGradGradGradGradGradGradGradGradGradGradGradGradGradGradGradGradGrad

 Leave Link  103 at Sun Jul 16 12:30:50 2017, MaxMem=    33554432 cpu:         0.0
 (Enter /sw/chem/g09/l202.exe)
                          Input orientation:                          
 ---------------------------------------------------------------------
 Center     Atomic      Atomic             Coordinates (Angstroms)
 Number     Number       Type             X           Y           Z
 ---------------------------------------------------------------------
      1          1           0       -2.834882    3.964376    2.816075
      2          1           0        3.653622    3.768381    6.604223
      3          1           0        2.108864    3.090640    7.130849
      4          1           0        2.306492    4.840949    7.000981
      5          1           0        3.787486    5.317372    3.909746
      6          1           0        2.301647    6.235967    4.130798
      7          1           0        2.506143    5.191648    2.713598
      8          1           0        3.721162    2.119311    4.089425
      9          1           0        2.439095    2.236778    2.879162
     10          1           0        2.162508    1.339005    4.383427
     11          1           0       -3.234873    5.595427    5.982801
     12          1           0       -2.381082    4.284829    6.807624
     13          1           0       -3.026560    4.023659    5.195150
     14          1           0       -0.570287    7.114402    3.353289
     15          1           0       -2.178943    6.365236    3.128775
     16          1           0       -0.645154    7.378553    6.492317
     17          1           0        0.927622    6.852301    5.890227
     18          1           0        0.177271    6.004935    7.248781
     19          6           0        0.126877    3.837103    4.559344
     20          1           0       -0.352380    2.888557    4.818999
     21         14           0        1.989433    3.807052    4.744871
     22         14           0       -0.904106    5.344219    5.102841
     23          6           0        2.568992    3.886744    6.540872
     24          6           0        2.702269    5.279553    3.787237
     25          6           0        2.642078    2.221457    3.953133
     26          6           0       -2.543229    4.763019    5.839233
     27          6           0       -1.132275    6.176242    3.392370
     28          6           0       -0.022103    6.503052    6.298136
     29         24           0       -0.270820    4.518489    2.768263
     30          8           0        0.572560    4.130049    1.161526
     31          8           0       -2.066460    3.597927    2.371181
     32          8           0       -1.093551    2.231195    0.335008
     33         14           0       -2.333398    2.260841    1.366751
     34         14           0        0.372966    3.009960    0.025354
     35          8           0        1.528694    1.824214   -0.017437
     36          8           0        0.329463    3.677186   -1.481604
     37          8           0       -3.798246    2.422107    0.623833
     38          8           0       -2.438057    0.962811    2.368174
     39          1           0        1.471990    1.112986    0.626360
     40          1           0        0.721111    3.163278   -2.193277
     41          1           0       -3.813770    2.949492   -0.179508
     42          1           0       -3.058486    0.287828    2.079261
 ---------------------------------------------------------------------
                    Distance matrix (angstroms):
                    1          2          3          4          5
     1  H    0.000000
     2  H    7.515927   0.000000
     3  H    6.619767   1.767186   0.000000
     4  H    6.686968   1.767082   1.766212   0.000000
     5  H    6.847078   3.110868   4.260471   3.460644   0.000000
     6  H    5.768237   3.746285   4.350926   3.191246   1.760795
     7  H    5.481172   4.298763   4.907563   4.306333   1.757389
     8  H    6.928737   3.008023   3.576765   4.229156   3.203791
     9  H    5.550082   4.206776   4.349135   4.877364   3.517147
    10  H    5.858590   3.613478   3.258747   4.374464   4.323463
    11  H    3.584477   7.153714   6.012279   5.684422   7.327237
    12  H    4.030023   6.060177   4.657271   4.724405   6.893118
    13  H    2.387520   6.831946   5.566869   5.689502   7.053877
    14  H    3.916587   6.293317   6.135020   5.172050   4.746488
    15  H    2.508419   7.269196   6.717504   6.118542   6.107881
    16  H    5.474145   5.614743   5.136004   3.925607   5.528692
    17  H    5.652164   4.177491   4.133348   2.679663   3.802254
    18  H    5.734617   4.183616   3.498296   2.439232   4.965436
    19  C    3.439070   4.077276   3.331384   3.423451   4.001654
    20  H    3.366290   4.473161   3.382781   3.955058   4.885118
    21  Si   5.197982   2.495638   2.494073   2.501900   2.492287
    22  Si   3.295628   5.050772   4.274275   3.763530   4.840995
    23  C    6.563688   1.092907   1.092507   1.091382   3.233303
    24  C    5.773464   3.335285   4.040199   3.267593   1.092765
    25  C    5.858990   3.231791   3.337316   4.032832   3.301292
    26  C    3.140442   6.322616   5.109510   4.987537   6.641399
    27  C    2.850147   6.246487   5.831136   5.160446   5.020895
    28  C    5.146003   4.591630   4.108404   2.946003   4.650077
    29  Cr   2.623688   5.538817   5.170474   4.966127   4.290809
    30  O    3.791522   6.264718   6.250873   6.132792   4.392971
    31  O    0.960566   7.118078   6.351780   6.488672   6.292246
    32  O    3.491682   8.012593   7.561585   7.925043   6.791742
    33  Si   2.292173   8.096184   7.324417   7.741452   7.298933
    34  Si   4.357674   7.390495   7.314910   7.466620   5.663179
    35  O    5.625823   7.220906   7.282748   7.678792   5.720757
    36  O    5.344680   8.742937   8.813890   8.787334   6.611716
    37  O    2.848261   9.649241   8.813747   9.153504   8.759173
    38  O    3.060634   7.932458   6.919915   7.682031   7.752163
    39  H    5.610207   6.895324   6.828258   7.431682   5.815411
    40  H    6.195196   9.293104   9.427113   9.479578   7.161680
    41  H    3.310850  10.121834   9.409508   9.622611   8.950304
    42  H    3.756315   8.811465   7.750858   8.587038   8.689898
                    6          7          8          9         10
     6  H    0.000000
     7  H    1.772252   0.000000
     8  H    4.354721   3.578886   0.000000
     9  H    4.192731   2.960264   1.766984   0.000000
    10  H    4.905448   4.212988   1.767687   1.773502   0.000000
    11  H    5.873096   6.618912   8.003417   7.287456   7.057397
    12  H    5.735877   6.439591   7.022496   6.546864   5.932859
    13  H    5.866595   6.175200   7.097952   6.199204   5.898533
    14  H    3.102285   3.683831   6.626414   5.750860   6.471828
    15  H    4.593087   4.847650   7.332255   6.199415   6.759094
    16  H    3.945366   5.384417   7.245566   7.000381   6.986167
    17  H    2.315902   3.916691   5.783420   5.714378   5.847377
    18  H    3.779969   5.162651   6.135044   6.197453   5.824287
    19  C    3.266164   3.301890   4.011299   3.275729   3.227264
    20  H    4.326966   4.231796   4.209247   3.461230   2.985883
    21  Si   2.524716   2.512004   2.505387   2.479683   2.500371
    22  Si   3.466545   4.166720   5.728887   5.077197   5.095431
    23  C    3.376208   4.044101   3.234333   4.018380   3.363149
    24  C    1.092364   1.094940   3.334155   3.186274   4.021779
    25  C    4.032834   3.221329   1.092443   1.093092   1.092640
    26  C    5.344263   5.953946   7.020941   6.321983   5.998934
    27  C    3.512928   3.829914   6.363994   5.342045   5.936047
    28  C    3.188809   4.578288   6.173137   5.995663   5.925033
    29  Cr   3.379914   2.857911   4.841223   3.544311   4.317286
    30  O    4.030038   2.697158   4.746510   3.165233   4.549561
    31  O    5.397765   4.854472   6.215725   4.734004   5.199619
    32  O    6.478703   5.232568   6.106523   4.353428   5.271396
    33  Si   6.702628   5.815908   6.640081   5.006461   5.492111
    34  Si   5.566112   4.066554   5.340444   3.607065   4.998735
    35  O    6.104824   4.444499   4.664795   3.064201   4.472667
    36  O    6.475795   4.962988   6.705741   5.053870   6.574628
    37  O    8.003313   7.196026   8.285138   6.635155   7.130094
    38  O    7.306012   6.515174   6.498937   5.066627   5.036662
    39  H    6.262136   4.696969   4.250210   2.696909   3.826676
    40  H    7.206486   5.601611   7.040065   5.435026   6.975574
    41  H    8.171780   7.303330   8.699896   6.997267   7.689600
    42  H    8.265603   7.444120   7.304705   5.887414   5.802838
                   11         12         13         14         15
    11  H    0.000000
    12  H    1.768321   0.000000
    13  H    1.770379   1.756395   0.000000
    14  H    4.040005   4.818495   4.356423   0.000000
    15  H    3.138958   4.231180   3.235945   1.788695   0.000000
    16  H    3.185246   3.561459   4.313821   3.151012   3.833110
    17  H    4.349100   4.287313   4.911202   2.957783   4.184925
    18  H    3.662394   3.114250   4.290383   4.118813   4.759833
    19  C    4.052073   3.397805   3.222300   3.561081   3.708745
    20  H    4.121935   3.165413   2.929366   4.478120   4.275569
    21  Si   5.658987   4.856400   5.040819   4.407633   5.150867
    22  Si   2.503979   2.491997   2.501442   2.511158   2.562152
    23  C    6.075845   4.973214   5.756728   5.516660   6.350450
    24  C    6.337975   5.996055   6.031498   3.776851   5.043660
    25  C    7.074021   6.134962   6.076512   5.883877   6.410360
    26  C    1.091735   1.092126   1.093209   3.949863   3.169603
    27  C    3.386532   4.098893   3.387026   1.094304   1.095771
    28  C    3.353373   3.277937   4.048547   3.057185   3.836118
    29  Cr   4.503183   4.563358   3.705231   2.677816   2.679809
    30  O    6.315740   6.373883   5.406950   3.875085   4.054244
    31  O    4.289405   4.500316   3.012946   3.945715   2.871341
    32  O    6.913818   6.911578   5.529053   5.764507   5.106222
    33  Si   5.765417   5.805334   4.271374   5.532807   4.469300
    34  Si   7.429153   7.430293   6.269861   5.367618   5.234629
    35  O    8.539114   8.241507   7.263536   6.614651   6.653278
    36  O    8.491259   8.742287   7.480774   6.000016   5.896890
    37  O    6.253470   6.611910   4.904835   6.315638   4.944203
    38  O    5.929720   5.545067   4.207959   6.503929   5.461854
    39  H    8.422488   7.944481   7.041506   6.901017   6.868590
    40  H    9.402841   9.586329   8.329114   6.931341   6.854713
    41  H    6.731281   7.256427   5.537191   6.351953   5.028390
    42  H    6.590853   6.228347   4.864794   7.376747   6.229764
                   16         17         18         19         20
    16  H    0.000000
    17  H    1.764392   0.000000
    18  H    1.770719   1.768255   0.000000
    19  C    4.107832   3.391734   3.454722   0.000000
    20  H    4.800601   4.300837   3.987002   1.094005   0.000000
    21  Si   4.769721   3.422400   3.792649   1.872014   2.516588
    22  Si   2.477138   2.499903   2.492184   1.905181   2.532833
    23  C    4.746138   3.451371   3.272338   3.145289   3.534917
    24  C    4.788371   3.169460   4.345582   3.051140   4.014010
    25  C    6.621857   5.304376   5.590284   3.050252   3.187715
    26  C    3.297003   4.051482   3.306101   3.102403   3.058481
    27  C    3.360433   3.307495   4.076293   2.901528   3.667749
    28  C    1.091971   1.091028   1.091603   3.186358   3.919375
    29  Cr   4.710485   4.077941   4.741872   1.957146   2.620849
    30  O    6.360262   5.467846   6.381702   3.439421   3.971640
    31  O    5.770356   5.651474   5.883791   3.107409   3.071333
    32  O    8.037960   7.503347   7.978494   4.681175   4.592127
    33  Si   7.437242   7.223406   7.410801   4.327841   4.029451
    34  Si   7.870374   7.033346   7.822152   4.615386   4.849732
    35  O    8.829111   7.780967   8.491331   5.192662   5.297394
    36  O    8.844965   8.048791   9.036659   6.046459   6.386270
    37  O    8.303460   8.348374   8.516533   5.735595   5.448944
    38  O    7.834845   7.643216   7.488877   4.431892   3.750345
    39  H    8.840197   7.806687   8.334502   4.969759   4.905018
    40  H    9.750629   8.887889   9.875385   6.812125   7.099287
    41  H    8.612198   8.634489   8.969037   6.226819   6.080297
    42  H    8.693539   8.573495   8.359388   5.375379   4.646823
                   21         22         23         24         25
    21  Si   0.000000
    22  Si   3.295996   0.000000
    23  C    1.888878   4.031696   0.000000
    24  C    1.895642   3.839393   3.088719   0.000000
    25  C    1.888625   4.863013   3.078135   3.063184   0.000000
    26  C    4.759887   1.888595   5.234019   5.656213   6.074893
    27  C    4.145767   1.915733   5.371615   3.957739   5.495500
    28  C    3.705041   1.884026   3.690225   3.901765   5.561381
    29  Cr   3.085752   2.556000   4.764054   3.233695   3.894258
    30  O    3.866810   4.380493   5.743022   3.570907   3.964681
    31  O    4.704084   3.444208   6.241567   5.251081   5.154374
    32  O    5.606693   5.697284   7.393768   5.968134   5.200562
    33  Si   5.699941   5.050590   7.310849   6.350537   5.607699
    34  Si   5.051946   5.732412   6.931324   4.972773   4.604134
    35  O    5.179141   6.672795   6.953249   5.271830   4.142807
    36  O    6.445258   6.903304   8.331838   5.996538   6.083067
    37  O    7.238664   6.080814   8.814660   7.773597   7.252742
    38  O    5.774172   5.387777   7.143622   6.860827   5.468460
    39  H    4.948522   6.602124   6.624092   5.372617   3.696652
    40  H    7.082442   7.786602   8.956753   6.646063   6.508110
    41  H    7.659118   6.488765   9.315664   7.976404   7.699788
    42  H    6.706109   6.272996   8.032850   7.811581   6.304502
                   26         27         28         29         30
    26  C    0.000000
    27  C    3.158343   0.000000
    28  C    3.097480   3.127741   0.000000
    29  Cr   3.828119   1.969710   4.057136   0.000000
    30  O    5.655947   3.474195   5.689423   1.855742   0.000000
    31  O    3.689462   2.926301   5.295292   2.056558   2.951414
    32  O    6.229622   4.991228   7.413208   3.439379   2.657951
    33  Si   5.129134   4.569047   6.903405   3.363843   3.461307
    34  Si   6.736364   4.860853   7.190658   3.195883   1.607894
    35  O    7.714773   6.135771   8.011427   4.272879   2.760620
    36  O    7.938895   5.669002   8.284532   4.373728   2.692641
    37  O    5.852806   5.372684   7.944248   4.629917   4.723359
    38  O    5.147902   5.471189   7.209418   4.183280   4.533344
    39  H    7.524544   6.330053   7.965812   4.384357   3.193438
    40  H    8.816819   6.611539   9.154810   5.238072   3.494484
    41  H    6.413143   5.510049   8.304481   4.868634   4.736241
    42  H    5.867726   6.333085   8.102317   5.113150   5.365575
                   31         32         33         34         35
    31  O    0.000000
    32  O    2.638278   0.000000
    33  Si   1.693498   1.613255   0.000000
    34  Si   3.435027   1.689092   3.112062   0.000000
    35  O    4.666550   2.676942   4.125818   1.656361   0.000000
    36  O    4.537696   2.723222   4.148492   1.648637   2.648669
    37  O    2.726694   2.726764   1.650368   4.254734   5.398610
    38  O    2.661190   2.747773   1.642767   4.193027   4.708319
    39  H    4.662613   2.813766   4.043109   2.273229   0.961007
    40  H    5.365981   3.248692   4.776842   2.251008   2.679471
    41  H    3.159046   2.860117   2.248701   4.192181   5.462091
    42  H    3.467865   3.268037   2.219505   4.837706   5.272461
                   36         37         38         39         40
    36  O    0.000000
    37  O    4.800632   0.000000
    38  O    5.463313   2.649978   0.000000
    39  H    3.510556   5.430395   4.283099   0.000000
    40  H    0.961233   5.376805   5.969023   3.566212   0.000000
    41  H    4.403564   0.961110   3.511434   5.653445   4.966499
    42  H    5.970402   2.687129   0.961252   4.828770   6.388125
                   41         42
    41  H    0.000000
    42  H    3.571687   0.000000
 Symmetry turned off by external request.
 Stoichiometry    C7H23CrO7Si4(2)
 Framework group  C1[X(C7H23CrO7Si4)]
 Deg. of freedom   120
 Full point group                 C1      NOp   1
 Rotational constants (GHZ):      0.0000026      0.0000011      0.0000008
 Leave Link  202 at Sun Jul 16 12:30:51 2017, MaxMem=    33554432 cpu:         1.3
 (Enter /sw/chem/g09/l301.exe)
 General basis read from cards:  (5D, 7F)
 Centers:      29
 def2TZVP
 ****
 Centers:       1      2      3      4      5      6      7      8      9     10
 Centers:      11     12     13     14     15     16     17     18     20     39
 Centers:      40     41     42     19     23     24     25     26     27     28
 Centers:      30     31     32     35     36     37     38     21     22     33
 Centers:      34
 TZVP
 ****
 Ernie: Thresh=  0.10000D-02 Tol=  0.10000D-05 Strict=F.
   537 basis functions,   964 primitive gaussians,   562 cartesian basis functions
   101 alpha electrons      100 beta electrons
       nuclear repulsion energy      2807.6040513868 Hartrees.
 IExCor= 4639 DFT=T Ex+Corr=wB97XD ExCW=0 ScaHFX=  1.000000
 ScaDFX=  1.000000  1.000000  1.000000  1.000000 ScalE2=  1.000000  1.000000
 IRadAn=      0 IRanWt=     -1 IRanGd=            0 ICorTp=0 IEmpDi=121
  HFx wShort=  0.000000 wLong=  0.200000 cFull=  0.222036 cShort=  0.000000 cLong=  0.777964
  DFx wShort=  0.000000 wLong=  0.200000 cFull=  0.000000 cShort=  0.000000 cLong=  1.000000
 NAtoms=   42 NActive=   42 NUniq=   42 SFac= 1.00D+00 NAtFMM=   60 NAOKFM=F Big=F
 Integral buffers will be    131072 words long.
 Raffenetti 2 integral format.
 Two-electron integral symmetry is turned off.
 R6Disp:  Grimme-D2 Dispersion energy=       -0.0375954369 Hartrees.
 Nuclear repulsion after empirical dispersion term =     2807.5664559499 Hartrees.
 Leave Link  301 at Sun Jul 16 12:30:52 2017, MaxMem=    33554432 cpu:         0.1
 (Enter /sw/chem/g09/l302.exe)
 NPDir=0 NMtPBC=     1 NCelOv=     1 NCel=       1 NClECP=     1 NCelD=      1
         NCelK=      1 NCelE2=     1 NClLst=     1 CellRange=     0.0.
 One-electron integrals computed using PRISM.
 PrsmSu:  requested number of processors reduced to:   3 ShMem   1 Linda.
 NBasis=   537 RedAO= T EigKep=  2.08D-04  NBF=   537
 NBsUse=   537 1.00D-06 EigRej= -1.00D+00 NBFU=   537
 Precomputing XC quadrature grid using
 IXCGrd= 4 IRadAn=           0 IRanWt=          -1 IRanGd=           0 AccXCQ= 0.00D+00.
 Generated NRdTot=       0 NPtTot=           0 NUsed=           0 NTot=          32
 NSgBfM=   540   540   540   540   540 MxSgAt=    42 MxSgA2=    42.
 Leave Link  302 at Sun Jul 16 12:31:04 2017, MaxMem=    33554432 cpu:        69.8
 (Enter /sw/chem/g09/l303.exe)
 DipDrv:  MaxL=1.
 Leave Link  303 at Sun Jul 16 12:31:08 2017, MaxMem=    33554432 cpu:         5.3
 (Enter /sw/chem/g09/l401.exe)
 ExpMin= 3.41D-02 ExpMax= 2.54D+05 ExpMxC= 2.46D+03 IAcc=3 IRadAn=         5 AccDes= 0.00D+00
 Harris functional with IExCor= 4639 and IRadAn=       5 diagonalized for initial guess.
 HarFok:  IExCor= 4639 AccDes= 0.00D+00 IRadAn=         5 IDoV= 1 UseB2=F ITyADJ=14
 ICtDFT=  3500011 ScaDFX=  1.000000  1.000000  1.000000  1.000000
 FoFCou: FMM=F IPFlag=           0 FMFlag=      100000 FMFlg1=           0
         NFxFlg=           0 DoJE=T BraDBF=F KetDBF=T FulRan=T
         wScrn=  0.000000 ICntrl=     500 IOpCl=  0 I1Cent=   200000004 NGrid=           0
         NMat0=    1 NMatS0=      1 NMatT0=    0 NMatD0=    1 NMtDS0=    0 NMtDT0=    0
 Symmetry not used in FoFCou.
 CoulSu:  requested number of processors reduced to:  11 ShMem   1 Linda.
 CoulSu:  requested number of processors reduced to:  11 ShMem   1 Linda.
 Harris En= -2942.76301830872    
 JPrj=0 DoOrth=F DoCkMO=F.
 Initial guess <Sx>= 0.0000 <Sy>= 0.0000 <Sz>= 0.5000 <S**2>= 0.7500 S= 0.5000
 Leave Link  401 at Sun Jul 16 12:31:19 2017, MaxMem=    33554432 cpu:        90.9
 (Enter /sw/chem/g09/l502.exe)
 UHF open shell SCF:
 Using DIIS extrapolation, IDIIS=  1040.
 Two-electron integral symmetry not used.
 IVT=     1964258 IEndB=     1964258 NGot=    33554432 MDV=    32908581
 LenX=    32908581 LenY=    32592175
 Requested convergence on RMS density matrix=1.00D-08 within1000 cycles.
 Requested convergence on MAX density matrix=1.00D-06.
 Requested convergence on             energy=1.00D-06.
 No special actions if energy rises.
 Fock matrices will be formed incrementally for  20 cycles.

 Cycle   1  Pass 1  IDiag  1:
 FoFJK:  IHMeth= 1 ICntrl=       0 DoSepK=T KAlg= 0 I1Cent=   0 FoldK=F
 IRaf=         1 NMat=   1 IRICut=       1 DoRegI=T DoRafI=F ISym2E= 0.
 FoFCou: FMM=F IPFlag=           0 FMFlag=      100000 FMFlg1=           0
         NFxFlg=           0 DoJE=T BraDBF=F KetDBF=F FulRan=T
         wScrn=  0.000000 ICntrl=     500 IOpCl=  0 I1Cent=           0 NGrid=           0
         NMat0=    1 NMatS0=      1 NMatT0=    0 NMatD0=    1 NMtDS0=    0 NMtDT0=    0
 Symmetry not used in FoFCou.
 CoulSu:  requested number of processors reduced to:  11 ShMem   1 Linda.
 CoulSu:  requested number of processors reduced to:  11 ShMem   1 Linda.
 CoulSu:  requested number of processors reduced to:  11 ShMem   1 Linda.
 E= -3005.47787020945    
 DIIS: error= 9.48D-02 at cycle   1 NSaved=   1.
 NSaved= 1 IEnMin= 1 EnMin= -3005.47787020945     IErMin= 1 ErrMin= 9.48D-02
 ErrMax= 9.48D-02  0.00D+00 EMaxC= 1.00D-01 BMatC= 2.60D+01 BMatP= 2.60D+01
 IDIUse=3 WtCom= 5.21D-02 WtEn= 9.48D-01
 Coeff-Com:  0.100D+01
 Coeff-En:   0.100D+01
 Coeff:      0.100D+01
 Gap=     0.338 Goal=   None    Shift=    0.000
 Gap=     0.001 Goal=   None    Shift=    0.000
 GapD=    0.001 DampG=0.250 DampE=0.250 DampFc=0.1250 IDamp=-1.
 Damping current iteration by 1.25D-01
 RMSDP=3.90D-02 MaxDP=1.16D+01              OVMax= 9.92D-01

 Cycle   2  Pass 1  IDiag  1:
 RMSU=  3.11D-03    CP:  8.94D-01
 CoulSu:  requested number of processors reduced to:  11 ShMem   1 Linda.
 CoulSu:  requested number of processors reduced to:  11 ShMem   1 Linda.
 CoulSu:  requested number of processors reduced to:  11 ShMem   1 Linda.
 E= -3007.21393681597     Delta-E=       -1.736066606516 Rises=F Damp=T
 DIIS: error= 5.57D-02 at cycle   2 NSaved=   2.
 NSaved= 2 IEnMin= 2 EnMin= -3007.21393681597     IErMin= 2 ErrMin= 5.57D-02
 ErrMax= 5.57D-02  0.00D+00 EMaxC= 1.00D-01 BMatC= 1.16D+01 BMatP= 2.60D+01
 IDIUse=3 WtCom= 4.43D-01 WtEn= 5.57D-01
 Coeff-Com: -0.114D+01 0.214D+01
 Coeff-En:   0.000D+00 0.100D+01
 Coeff:     -0.503D+00 0.150D+01
 Gap=     0.407 Goal=   None    Shift=    0.000
 Gap=     0.003 Goal=   None    Shift=    0.000
 RMSDP=2.90D-02 MaxDP=1.03D+01 DE=-1.74D+00 OVMax= 7.10D-01

 Cycle   3  Pass 1  IDiag  1:
 RMSU=  9.98D-03    CP:  1.34D-01  2.39D+00
 CoulSu:  requested number of processors reduced to:  11 ShMem   1 Linda.
 CoulSu:  requested number of processors reduced to:  11 ShMem   1 Linda.
 CoulSu:  requested number of processors reduced to:  11 ShMem   1 Linda.
 E= -3002.07858640591     Delta-E=        5.135350410063 Rises=F Damp=F
 DIIS: error= 1.03D-01 at cycle   3 NSaved=   3.
 NSaved= 3 IEnMin= 2 EnMin= -3007.21393681597     IErMin= 2 ErrMin= 5.57D-02
 ErrMax= 1.03D-01  0.00D+00 EMaxC= 1.00D-01 BMatC= 5.94D+01 BMatP= 1.16D+01
 IDIUse=2 WtCom= 0.00D+00 WtEn= 1.00D+00
 EnCoef did   100 forward-backward iterations
 Coeff-En:   0.571D+00 0.261D-01 0.403D+00
 Coeff:      0.571D+00 0.261D-01 0.403D+00
 Gap=     0.231 Goal=   None    Shift=    0.000
 Gap=    -0.146 Goal=   None    Shift=    0.000
 RMSDP=2.90D-03 MaxDP=3.32D-01 DE= 5.14D+00 OVMax= 4.97D-01

 Cycle   4  Pass 1  IDiag  1:
 RMSU=  2.76D-03    CP:  1.35D-01  2.11D+00  9.79D-01
 CoulSu:  requested number of processors reduced to:  11 ShMem   1 Linda.
 CoulSu:  requested number of processors reduced to:  11 ShMem   1 Linda.
 CoulSu:  requested number of processors reduced to:  11 ShMem   1 Linda.
 E= -3009.52889254005     Delta-E=       -7.450306134138 Rises=F Damp=F
 DIIS: error= 2.22D-02 at cycle   4 NSaved=   4.
 NSaved= 4 IEnMin= 4 EnMin= -3009.52889254005     IErMin= 4 ErrMin= 2.22D-02
 ErrMax= 2.22D-02  0.00D+00 EMaxC= 1.00D-01 BMatC= 3.00D+00 BMatP= 1.16D+01
 IDIUse=3 WtCom= 7.78D-01 WtEn= 2.22D-01
 Coeff-Com:  0.101D+00 0.142D+00 0.335D-01 0.723D+00
 Coeff-En:   0.971D-01 0.000D+00 0.000D+00 0.903D+00
 Coeff:      0.100D+00 0.111D+00 0.261D-01 0.763D+00
 Gap=     0.282 Goal=   None    Shift=    0.000
 Gap=     0.215 Goal=   None    Shift=    0.000
 RMSDP=2.99D-03 MaxDP=1.85D-01 DE=-7.45D+00 OVMax= 3.35D-01

 Cycle   5  Pass 1  IDiag  1:
 RMSU=  2.76D-03    CP:  1.51D-01  1.90D+00  9.89D-01  7.33D-01
 CoulSu:  requested number of processors reduced to:  11 ShMem   1 Linda.
 CoulSu:  requested number of processors reduced to:  11 ShMem   1 Linda.
 CoulSu:  requested number of processors reduced to:  11 ShMem   1 Linda.
 E= -3009.59214626743     Delta-E=       -0.063253727385 Rises=F Damp=F
 DIIS: error= 1.98D-02 at cycle   5 NSaved=   5.
 NSaved= 5 IEnMin= 5 EnMin= -3009.59214626743     IErMin= 5 ErrMin= 1.98D-02
 ErrMax= 1.98D-02  0.00D+00 EMaxC= 1.00D-01 BMatC= 2.69D+00 BMatP= 3.00D+00
 IDIUse=3 WtCom= 8.02D-01 WtEn= 1.98D-01
 Coeff-Com: -0.461D-01 0.108D+00-0.197D-01 0.477D+00 0.481D+00
 Coeff-En:   0.000D+00 0.000D+00 0.000D+00 0.476D+00 0.524D+00
 Coeff:     -0.369D-01 0.864D-01-0.158D-01 0.477D+00 0.489D+00
 Gap=     0.304 Goal=   None    Shift=    0.000
 Gap=     0.281 Goal=   None    Shift=    0.000
 RMSDP=1.92D-03 MaxDP=1.76D-01 DE=-6.33D-02 OVMax= 1.64D-01

 Cycle   6  Pass 1  IDiag  1:
 RMSU=  8.42D-04    CP:  1.35D-01  1.94D+00  9.97D-01  8.79D-01  4.33D-01
 CoulSu:  requested number of processors reduced to:  11 ShMem   1 Linda.
 CoulSu:  requested number of processors reduced to:  11 ShMem   1 Linda.
 E= -3010.11591311044     Delta-E=       -0.523766843007 Rises=F Damp=F
 DIIS: error= 5.13D-03 at cycle   6 NSaved=   6.
 NSaved= 6 IEnMin= 6 EnMin= -3010.11591311044     IErMin= 6 ErrMin= 5.13D-03
 ErrMax= 5.13D-03  0.00D+00 EMaxC= 1.00D-01 BMatC= 1.10D-01 BMatP= 2.69D+00
 IDIUse=3 WtCom= 9.49D-01 WtEn= 5.13D-02
 Coeff-Com: -0.868D-01 0.114D+00 0.267D-02 0.114D+00 0.166D+00 0.690D+00
 Coeff-En:   0.000D+00 0.000D+00 0.000D+00 0.000D+00 0.000D+00 0.100D+01
 Coeff:     -0.824D-01 0.108D+00 0.253D-02 0.108D+00 0.158D+00 0.706D+00
 Gap=     0.265 Goal=   None    Shift=    0.000
 Gap=     0.278 Goal=   None    Shift=    0.000
 RMSDP=4.22D-04 MaxDP=4.80D-02 DE=-5.24D-01 OVMax= 4.43D-02

 Cycle   7  Pass 1  IDiag  1:
 RMSU=  3.41D-04    CP:  1.33D-01  1.98D+00  9.94D-01  8.80D-01  3.62D-01
                    CP:  1.02D+00
 CoulSu:  requested number of processors reduced to:  11 ShMem   1 Linda.
 CoulSu:  requested number of processors reduced to:  11 ShMem   1 Linda.
 E= -3010.13515021015     Delta-E=       -0.019237099717 Rises=F Damp=F
 DIIS: error= 2.23D-03 at cycle   7 NSaved=   7.
 NSaved= 7 IEnMin= 7 EnMin= -3010.13515021015     IErMin= 7 ErrMin= 2.23D-03
 ErrMax= 2.23D-03  0.00D+00 EMaxC= 1.00D-01 BMatC= 2.42D-02 BMatP= 1.10D-01
 IDIUse=3 WtCom= 9.78D-01 WtEn= 2.23D-02
 Coeff-Com: -0.383D-01 0.465D-01 0.829D-02 0.176D-01 0.209D-02 0.162D+00
 Coeff-Com:  0.802D+00
 Coeff-En:   0.000D+00 0.000D+00 0.000D+00 0.000D+00 0.000D+00 0.000D+00
 Coeff-En:   0.100D+01
 Coeff:     -0.375D-01 0.454D-01 0.811D-02 0.172D-01 0.205D-02 0.158D+00
 Coeff:      0.807D+00
 Gap=     0.276 Goal=   None    Shift=    0.000
 Gap=     0.279 Goal=   None    Shift=    0.000
 RMSDP=2.28D-04 MaxDP=1.80D-02 DE=-1.92D-02 OVMax= 3.66D-02

 Cycle   8  Pass 1  IDiag  1:
 RMSU=  1.19D-04    CP:  1.32D-01  1.99D+00  9.94D-01  8.72D-01  3.14D-01
                    CP:  1.13D+00  1.26D+00
 CoulSu:  requested number of processors reduced to:  11 ShMem   1 Linda.
 CoulSu:  requested number of processors reduced to:  11 ShMem   1 Linda.
 E= -3010.13988430698     Delta-E=       -0.004734096822 Rises=F Damp=F
 DIIS: error= 1.03D-03 at cycle   8 NSaved=   8.
 NSaved= 8 IEnMin= 8 EnMin= -3010.13988430698     IErMin= 8 ErrMin= 1.03D-03
 ErrMax= 1.03D-03  0.00D+00 EMaxC= 1.00D-01 BMatC= 4.87D-03 BMatP= 2.42D-02
 IDIUse=3 WtCom= 9.90D-01 WtEn= 1.03D-02
 Coeff-Com: -0.235D-02 0.250D-02 0.240D-02 0.336D-02-0.253D-01-0.149D+00
 Coeff-Com:  0.190D+00 0.978D+00
 Coeff-En:   0.000D+00 0.000D+00 0.000D+00 0.000D+00 0.000D+00 0.000D+00
 Coeff-En:   0.000D+00 0.100D+01
 Coeff:     -0.233D-02 0.247D-02 0.238D-02 0.332D-02-0.251D-01-0.147D+00
 Coeff:      0.189D+00 0.978D+00
 Gap=     0.285 Goal=   None    Shift=    0.000
 Gap=     0.285 Goal=   None    Shift=    0.000
 RMSDP=1.73D-04 MaxDP=1.26D-02 DE=-4.73D-03 OVMax= 3.12D-02

 Cycle   9  Pass 1  IDiag  1:
 RMSU=  6.90D-05    CP:  1.31D-01  2.00D+00  9.93D-01  8.71D-01  2.78D-01
                    CP:  1.19D+00  1.55D+00  1.44D+00
 CoulSu:  requested number of processors reduced to:  11 ShMem   1 Linda.
 CoulSu:  requested number of processors reduced to:  11 ShMem   1 Linda.
 E= -3010.14162678948     Delta-E=       -0.001742482506 Rises=F Damp=F
 DIIS: error= 2.93D-04 at cycle   9 NSaved=   9.
 NSaved= 9 IEnMin= 9 EnMin= -3010.14162678948     IErMin= 9 ErrMin= 2.93D-04
 ErrMax= 2.93D-04  0.00D+00 EMaxC= 1.00D-01 BMatC= 6.47D-04 BMatP= 4.87D-03
 IDIUse=3 WtCom= 9.97D-01 WtEn= 2.93D-03
 Coeff-Com:  0.163D-02-0.170D-02-0.533D-03 0.254D-02-0.803D-02-0.748D-01
 Coeff-Com: -0.225D-01 0.436D+00 0.668D+00
 Coeff-En:   0.000D+00 0.000D+00 0.000D+00 0.000D+00 0.000D+00 0.000D+00
 Coeff-En:   0.000D+00 0.000D+00 0.100D+01
 Coeff:      0.163D-02-0.170D-02-0.532D-03 0.253D-02-0.801D-02-0.746D-01
 Coeff:     -0.225D-01 0.434D+00 0.669D+00
 Gap=     0.286 Goal=   None    Shift=    0.000
 Gap=     0.286 Goal=   None    Shift=    0.000
 RMSDP=5.18D-05 MaxDP=3.97D-03 DE=-1.74D-03 OVMax= 1.39D-02

 Cycle  10  Pass 1  IDiag  1:
 RMSU=  2.36D-05    CP:  1.31D-01  2.00D+00  9.93D-01  8.71D-01  2.70D-01
                    CP:  1.20D+00  1.62D+00  1.68D+00  1.09D+00
 CoulSu:  requested number of processors reduced to:  11 ShMem   1 Linda.
 CoulSu:  requested number of processors reduced to:  11 ShMem   1 Linda.
 E= -3010.14202806301     Delta-E=       -0.000401273530 Rises=F Damp=F
 DIIS: error= 2.23D-04 at cycle  10 NSaved=  10.
 NSaved=10 IEnMin=10 EnMin= -3010.14202806301     IErMin=10 ErrMin= 2.23D-04
 ErrMax= 2.23D-04  0.00D+00 EMaxC= 1.00D-01 BMatC= 1.88D-04 BMatP= 6.47D-04
 IDIUse=3 WtCom= 9.98D-01 WtEn= 2.23D-03
 Coeff-Com:  0.115D-02-0.144D-02-0.410D-03-0.211D-02-0.363D-04 0.161D-01
 Coeff-Com:  0.393D-02-0.628D-01 0.120D-01 0.103D+01
 Coeff-En:   0.000D+00 0.000D+00 0.000D+00 0.000D+00 0.000D+00 0.000D+00
 Coeff-En:   0.000D+00 0.000D+00 0.000D+00 0.100D+01
 Coeff:      0.114D-02-0.144D-02-0.409D-03-0.210D-02-0.363D-04 0.161D-01
 Coeff:      0.392D-02-0.626D-01 0.120D-01 0.103D+01
 Gap=     0.287 Goal=   None    Shift=    0.000
 Gap=     0.286 Goal=   None    Shift=    0.000
 RMSDP=3.85D-05 MaxDP=3.61D-03 DE=-4.01D-04 OVMax= 1.65D-02

 Cycle  11  Pass 1  IDiag  1:
 RMSU=  1.54D-05    CP:  1.31D-01  2.00D+00  9.93D-01  8.71D-01  2.67D-01
                    CP:  1.21D+00  1.66D+00  1.80D+00  1.34D+00  1.91D+00
 CoulSu:  requested number of processors reduced to:  11 ShMem   1 Linda.
 CoulSu:  requested number of processors reduced to:  11 ShMem   1 Linda.
 E= -3010.14233149060     Delta-E=       -0.000303427592 Rises=F Damp=F
 DIIS: error= 1.77D-04 at cycle  11 NSaved=  11.
 NSaved=11 IEnMin=11 EnMin= -3010.14233149060     IErMin=11 ErrMin= 1.77D-04
 ErrMax= 1.77D-04  0.00D+00 EMaxC= 1.00D-01 BMatC= 1.18D-04 BMatP= 1.88D-04
 IDIUse=3 WtCom= 9.98D-01 WtEn= 1.77D-03
 Coeff-Com: -0.265D-03 0.127D-03 0.471D-04-0.344D-02 0.334D-02 0.459D-01
 Coeff-Com:  0.347D-01-0.238D+00-0.408D+00 0.211D+00 0.135D+01
 Coeff-En:   0.000D+00 0.000D+00 0.000D+00 0.000D+00 0.000D+00 0.000D+00
 Coeff-En:   0.000D+00 0.000D+00 0.000D+00 0.000D+00 0.100D+01
 Coeff:     -0.264D-03 0.127D-03 0.470D-04-0.343D-02 0.333D-02 0.458D-01
 Coeff:      0.346D-01-0.238D+00-0.407D+00 0.211D+00 0.135D+01
 Gap=     0.287 Goal=   None    Shift=    0.000
 Gap=     0.287 Goal=   None    Shift=    0.000
 RMSDP=5.70D-05 MaxDP=5.91D-03 DE=-3.03D-04 OVMax= 2.71D-02

 Cycle  12  Pass 1  IDiag  1:
 RMSU=  1.69D-05    CP:  1.31D-01  2.00D+00  9.93D-01  8.71D-01  2.66D-01
                    CP:  1.22D+00  1.69D+00  1.95D+00  1.68D+00  3.00D+00
                    CP:  2.41D+00
 CoulSu:  requested number of processors reduced to:  11 ShMem   1 Linda.
 CoulSu:  requested number of processors reduced to:  11 ShMem   1 Linda.
 E= -3010.14272168182     Delta-E=       -0.000390191213 Rises=F Damp=F
 DIIS: error= 1.47D-04 at cycle  12 NSaved=  12.
 NSaved=12 IEnMin=12 EnMin= -3010.14272168182     IErMin=12 ErrMin= 1.47D-04
 ErrMax= 1.47D-04  0.00D+00 EMaxC= 1.00D-01 BMatC= 6.22D-05 BMatP= 1.18D-04
 IDIUse=3 WtCom= 9.99D-01 WtEn= 1.47D-03
 Coeff-Com: -0.731D-03 0.924D-03 0.203D-03-0.935D-05 0.151D-02 0.420D-02
 Coeff-Com: -0.410D-02-0.467D-01-0.986D-01-0.310D+00 0.350D+00 0.110D+01
 Coeff-En:   0.000D+00 0.000D+00 0.000D+00 0.000D+00 0.000D+00 0.000D+00
 Coeff-En:   0.000D+00 0.000D+00 0.000D+00 0.000D+00 0.000D+00 0.100D+01
 Coeff:     -0.730D-03 0.923D-03 0.203D-03-0.934D-05 0.151D-02 0.419D-02
 Coeff:     -0.409D-02-0.467D-01-0.985D-01-0.310D+00 0.350D+00 0.110D+01
 Gap=     0.288 Goal=   None    Shift=    0.000
 Gap=     0.287 Goal=   None    Shift=    0.000
 RMSDP=4.53D-05 MaxDP=5.73D-03 DE=-3.90D-04 OVMax= 2.33D-02

 Cycle  13  Pass 1  IDiag  1:
 RMSU=  1.94D-05    CP:  1.31D-01  2.00D+00  9.92D-01  8.71D-01  2.65D-01
                    CP:  1.23D+00  1.72D+00  2.04D+00  1.91D+00  3.00D+00
                    CP:  3.00D+00  2.76D+00
 CoulSu:  requested number of processors reduced to:  11 ShMem   1 Linda.
 CoulSu:  requested number of processors reduced to:  11 ShMem   1 Linda.
 E= -3010.14297437146     Delta-E=       -0.000252689648 Rises=F Damp=F
 DIIS: error= 1.20D-04 at cycle  13 NSaved=  13.
 NSaved=13 IEnMin=13 EnMin= -3010.14297437146     IErMin=13 ErrMin= 1.20D-04
 ErrMax= 1.20D-04  0.00D+00 EMaxC= 1.00D-01 BMatC= 4.78D-05 BMatP= 6.22D-05
 IDIUse=3 WtCom= 9.99D-01 WtEn= 1.20D-03
 Coeff-Com: -0.376D-03 0.574D-03 0.108D-03 0.246D-02-0.545D-04-0.190D-01
 Coeff-Com: -0.276D-01 0.772D-01 0.173D+00-0.119D+00-0.568D+00 0.155D+00
 Coeff-Com:  0.133D+01
 Coeff-En:   0.000D+00 0.000D+00 0.000D+00 0.000D+00 0.000D+00 0.000D+00
 Coeff-En:   0.000D+00 0.000D+00 0.000D+00 0.000D+00 0.000D+00 0.000D+00
 Coeff-En:   0.100D+01
 Coeff:     -0.375D-03 0.573D-03 0.108D-03 0.246D-02-0.544D-04-0.190D-01
 Coeff:     -0.276D-01 0.771D-01 0.173D+00-0.118D+00-0.567D+00 0.154D+00
 Coeff:      0.133D+01
 Gap=     0.289 Goal=   None    Shift=    0.000
 Gap=     0.288 Goal=   None    Shift=    0.000
 RMSDP=4.72D-05 MaxDP=7.07D-03 DE=-2.53D-04 OVMax= 2.53D-02

 Cycle  14  Pass 1  IDiag  1:
 RMSU=  3.21D-05    CP:  1.31D-01  2.00D+00  9.92D-01  8.71D-01  2.64D-01
                    CP:  1.23D+00  1.74D+00  2.10D+00  2.11D+00  3.00D+00
                    CP:  3.00D+00  3.00D+00  2.33D+00
 CoulSu:  requested number of processors reduced to:  11 ShMem   1 Linda.
 CoulSu:  requested number of processors reduced to:  11 ShMem   1 Linda.
 E= -3010.14319636646     Delta-E=       -0.000221994991 Rises=F Damp=F
 DIIS: error= 9.89D-05 at cycle  14 NSaved=  14.
 NSaved=14 IEnMin=14 EnMin= -3010.14319636646     IErMin=14 ErrMin= 9.89D-05
 ErrMax= 9.89D-05  0.00D+00 EMaxC= 1.00D-01 BMatC= 2.75D-05 BMatP= 4.78D-05
 IDIUse=1 WtCom= 1.00D+00 WtEn= 0.00D+00
 Coeff-Com:  0.492D-04-0.206D-04-0.398D-04 0.112D-02-0.189D-03-0.350D-02
 Coeff-Com:  0.367D-03 0.290D-01 0.741D-01 0.129D+00-0.299D+00-0.658D+00
 Coeff-Com:  0.390D+00 0.134D+01
 Coeff:      0.492D-04-0.206D-04-0.398D-04 0.112D-02-0.189D-03-0.350D-02
 Coeff:      0.367D-03 0.290D-01 0.741D-01 0.129D+00-0.299D+00-0.658D+00
 Coeff:      0.390D+00 0.134D+01
 Gap=     0.289 Goal=   None    Shift=    0.000
 Gap=     0.289 Goal=   None    Shift=    0.000
 RMSDP=5.25D-05 MaxDP=8.67D-03 DE=-2.22D-04 OVMax= 2.88D-02

 Cycle  15  Pass 1  IDiag  1:
 RMSU=  1.64D-05    CP:  1.31D-01  2.00D+00  9.92D-01  8.71D-01  2.64D-01
                    CP:  1.23D+00  1.75D+00  2.15D+00  2.30D+00  3.00D+00
                    CP:  3.00D+00  3.00D+00  3.00D+00  2.29D+00
 CoulSu:  requested number of processors reduced to:  11 ShMem   1 Linda.
 CoulSu:  requested number of processors reduced to:  11 ShMem   1 Linda.
 E= -3010.14340040585     Delta-E=       -0.000204039391 Rises=F Damp=F
 DIIS: error= 9.66D-05 at cycle  15 NSaved=  15.
 NSaved=15 IEnMin=15 EnMin= -3010.14340040585     IErMin=15 ErrMin= 9.66D-05
 ErrMax= 9.66D-05  0.00D+00 EMaxC= 1.00D-01 BMatC= 2.32D-05 BMatP= 2.75D-05
 IDIUse=1 WtCom= 1.00D+00 WtEn= 0.00D+00
 Coeff-Com:  0.991D-04-0.126D-03-0.199D-04 0.329D-04-0.213D-03 0.154D-02
 Coeff-Com:  0.808D-02 0.474D-02-0.863D-03 0.419D-01-0.283D-01-0.265D+00
 Coeff-Com: -0.562D-01 0.546D+00 0.748D+00
 Coeff:      0.991D-04-0.126D-03-0.199D-04 0.329D-04-0.213D-03 0.154D-02
 Coeff:      0.808D-02 0.474D-02-0.863D-03 0.419D-01-0.283D-01-0.265D+00
 Coeff:     -0.562D-01 0.546D+00 0.748D+00
 Gap=     0.289 Goal=   None    Shift=    0.000
 Gap=     0.289 Goal=   None    Shift=    0.000
 RMSDP=1.88D-05 MaxDP=3.49D-03 DE=-2.04D-04 OVMax= 1.06D-02

 Cycle  16  Pass 1  IDiag  1:
 RMSU=  4.12D-06    CP:  1.31D-01  2.00D+00  9.92D-01  8.71D-01  2.64D-01
                    CP:  1.23D+00  1.75D+00  2.16D+00  2.37D+00  3.00D+00
                    CP:  3.00D+00  3.00D+00  3.00D+00  2.72D+00  1.68D+00
 CoulSu:  requested number of processors reduced to:  11 ShMem   1 Linda.
 CoulSu:  requested number of processors reduced to:  11 ShMem   1 Linda.
 E= -3010.14347366098     Delta-E=       -0.000073255135 Rises=F Damp=F
 DIIS: error= 9.58D-05 at cycle  16 NSaved=  16.
 NSaved=16 IEnMin=16 EnMin= -3010.14347366098     IErMin=16 ErrMin= 9.58D-05
 ErrMax= 9.58D-05  0.00D+00 EMaxC= 1.00D-01 BMatC= 2.13D-05 BMatP= 2.32D-05
 IDIUse=1 WtCom= 1.00D+00 WtEn= 0.00D+00
 Coeff-Com:  0.336D-04-0.458D-04-0.581D-05-0.700D-04-0.159D-03 0.715D-03
 Coeff-Com:  0.479D-02 0.413D-02-0.508D-02-0.334D-02 0.703D-02-0.627D-01
 Coeff-Com: -0.473D-01 0.140D+00 0.373D+00 0.588D+00
 Coeff:      0.336D-04-0.458D-04-0.581D-05-0.700D-04-0.159D-03 0.715D-03
 Coeff:      0.479D-02 0.413D-02-0.508D-02-0.334D-02 0.703D-02-0.627D-01
 Coeff:     -0.473D-01 0.140D+00 0.373D+00 0.588D+00
 Gap=     0.289 Goal=   None    Shift=    0.000
 Gap=     0.289 Goal=   None    Shift=    0.000
 RMSDP=9.58D-06 MaxDP=1.82D-03 DE=-7.33D-05 OVMax= 5.28D-03

 Cycle  17  Pass 1  IDiag  1:
 RMSU=  1.74D-06    CP:  1.31D-01  2.00D+00  9.92D-01  8.71D-01  2.64D-01
                    CP:  1.23D+00  1.75D+00  2.17D+00  2.39D+00  3.00D+00
                    CP:  3.00D+00  3.00D+00  3.00D+00  2.90D+00  2.03D+00
                    CP:  2.07D+00
 CoulSu:  requested number of processors reduced to:  11 ShMem   1 Linda.
 CoulSu:  requested number of processors reduced to:  11 ShMem   1 Linda.
 E= -3010.14351344902     Delta-E=       -0.000039788041 Rises=F Damp=F
 DIIS: error= 9.50D-05 at cycle  17 NSaved=  17.
 NSaved=17 IEnMin=17 EnMin= -3010.14351344902     IErMin=17 ErrMin= 9.50D-05
 ErrMax= 9.50D-05  0.00D+00 EMaxC= 1.00D-01 BMatC= 2.13D-05 BMatP= 2.13D-05
 IDIUse=1 WtCom= 1.00D+00 WtEn= 0.00D+00
 Coeff-Com:  0.661D-04-0.101D-03-0.322D-05-0.348D-03-0.212D-03 0.155D-02
 Coeff-Com:  0.854D-02 0.489D-02-0.218D-01-0.523D-01 0.570D-01 0.916D-01
 Coeff-Com: -0.132D+00-0.150D+00 0.583D+00 0.267D+01-0.206D+01
 Coeff:      0.661D-04-0.101D-03-0.322D-05-0.348D-03-0.212D-03 0.155D-02
 Coeff:      0.854D-02 0.489D-02-0.218D-01-0.523D-01 0.570D-01 0.916D-01
 Coeff:     -0.132D+00-0.150D+00 0.583D+00 0.267D+01-0.206D+01
 Gap=     0.289 Goal=   None    Shift=    0.000
 Gap=     0.289 Goal=   None    Shift=    0.000
 RMSDP=1.49D-05 MaxDP=2.70D-03 DE=-3.98D-05 OVMax= 7.95D-03

 Cycle  18  Pass 1  IDiag  1:
 RMSU=  1.25D-06    CP:  1.31D-01  2.00D+00  9.92D-01  8.71D-01  2.65D-01
                    CP:  1.23D+00  1.74D+00  2.16D+00  2.36D+00  3.00D+00
                    CP:  3.00D+00  3.00D+00  3.00D+00  2.67D+00  1.53D+00
                    CP: -6.42D-02 -1.20D+00
 CoulSu:  requested number of processors reduced to:  11 ShMem   1 Linda.
 CoulSu:  requested number of processors reduced to:  11 ShMem   1 Linda.
 E= -3010.14345270725     Delta-E=        0.000060741770 Rises=F Damp=F
 DIIS: error= 9.18D-05 at cycle  18 NSaved=  18.
 NSaved=18 IEnMin=17 EnMin= -3010.14351344902     IErMin=18 ErrMin= 9.18D-05
 ErrMax= 9.18D-05  0.00D+00 EMaxC= 1.00D-01 BMatC= 2.03D-05 BMatP= 2.13D-05
 IDIUse=1 WtCom= 1.00D+00 WtEn= 0.00D+00
 Coeff-Com: -0.143D-03 0.181D-03 0.161D-05-0.750D-03-0.415D-03-0.259D-02
 Coeff-Com: -0.179D-02 0.148D-01-0.183D-01-0.172D+00 0.128D+00 0.631D+00
 Coeff-Com: -0.104D+00-0.131D+01-0.472D+00 0.472D+01-0.689D+01 0.448D+01
 Coeff:     -0.143D-03 0.181D-03 0.161D-05-0.750D-03-0.415D-03-0.259D-02
 Coeff:     -0.179D-02 0.148D-01-0.183D-01-0.172D+00 0.128D+00 0.631D+00
 Coeff:     -0.104D+00-0.131D+01-0.472D+00 0.472D+01-0.689D+01 0.448D+01
 Gap=     0.288 Goal=   None    Shift=    0.000
 Gap=     0.288 Goal=   None    Shift=    0.000
 RMSDP=4.45D-05 MaxDP=7.18D-03 DE= 6.07D-05 OVMax= 2.26D-02

 Cycle  19  Pass 1  IDiag  1:
 RMSU=  2.19D-05    CP:  1.31D-01  2.00D+00  9.92D-01  8.71D-01  2.66D-01
                    CP:  1.23D+00  1.74D+00  2.13D+00  2.31D+00  3.00D+00
                    CP:  3.00D+00  3.00D+00  3.00D+00  2.14D+00  1.93D-01
                    CP: -3.00D+00 -3.00D+00  3.00D+00
 CoulSu:  requested number of processors reduced to:  11 ShMem   1 Linda.
 CoulSu:  requested number of processors reduced to:  11 ShMem   1 Linda.
 E= -3010.14329837468     Delta-E=        0.000154332569 Rises=F Damp=F
 DIIS: error= 8.43D-05 at cycle  19 NSaved=  19.
 NSaved=19 IEnMin=17 EnMin= -3010.14351344902     IErMin=19 ErrMin= 8.43D-05
 ErrMax= 8.43D-05  0.00D+00 EMaxC= 1.00D-01 BMatC= 1.82D-05 BMatP= 2.03D-05
 IDIUse=1 WtCom= 1.00D+00 WtEn= 0.00D+00
 Coeff-Com: -0.156D-03 0.182D-03 0.138D-04-0.286D-04-0.222D-03-0.345D-02
 Coeff-Com: -0.162D-01-0.472D-02 0.185D-01 0.106D-01 0.612D-01 0.151D+00
 Coeff-Com:  0.692D-02-0.491D+00-0.107D+01-0.707D+00-0.209D+01 0.328D+01
 Coeff-Com:  0.185D+01
 Coeff:     -0.156D-03 0.182D-03 0.138D-04-0.286D-04-0.222D-03-0.345D-02
 Coeff:     -0.162D-01-0.472D-02 0.185D-01 0.106D-01 0.612D-01 0.151D+00
 Coeff:      0.692D-02-0.491D+00-0.107D+01-0.707D+00-0.209D+01 0.328D+01
 Coeff:      0.185D+01
 Gap=     0.289 Goal=   None    Shift=    0.000
 Gap=     0.288 Goal=   None    Shift=    0.000
 RMSDP=5.47D-05 MaxDP=7.64D-03 DE= 1.54D-04 OVMax= 2.66D-02

 Cycle  20  Pass 1  IDiag  1:
 RMSU=  6.78D-06    CP:  1.31D-01  2.00D+00  9.92D-01  8.71D-01  2.66D-01
                    CP:  1.23D+00  1.73D+00  2.12D+00  2.29D+00  3.00D+00
                    CP:  3.00D+00  3.00D+00  3.00D+00  1.63D+00 -1.25D+00
                    CP: -3.00D+00 -3.00D+00  3.00D+00  3.00D+00
 CoulSu:  requested number of processors reduced to:  11 ShMem   1 Linda.
 CoulSu:  requested number of processors reduced to:  11 ShMem   1 Linda.
 E= -3010.14316783415     Delta-E=        0.000130540537 Rises=F Damp=F
 DIIS: error= 6.90D-05 at cycle  20 NSaved=  20.
 NSaved=20 IEnMin=17 EnMin= -3010.14351344902     IErMin=20 ErrMin= 6.90D-05
 ErrMax= 6.90D-05  0.00D+00 EMaxC= 1.00D-01 BMatC= 1.34D-05 BMatP= 1.82D-05
 IDIUse=1 WtCom= 1.00D+00 WtEn= 0.00D+00
 Coeff-Com: -0.114D-03 0.156D-03 0.313D-05 0.670D-03 0.459D-03 0.240D-02
 Coeff-Com: -0.165D-02-0.243D-01-0.184D-02 0.140D+00 0.358D-01-0.511D+00
 Coeff-Com: -0.100D+00 0.103D+01 0.384D+00-0.365D+01 0.586D+01-0.404D+01
 Coeff-Com: -0.160D+00 0.203D+01
 Coeff:     -0.114D-03 0.156D-03 0.313D-05 0.670D-03 0.459D-03 0.240D-02
 Coeff:     -0.165D-02-0.243D-01-0.184D-02 0.140D+00 0.358D-01-0.511D+00
 Coeff:     -0.100D+00 0.103D+01 0.384D+00-0.365D+01 0.586D+01-0.404D+01
 Coeff:     -0.160D+00 0.203D+01
 Gap=     0.289 Goal=   None    Shift=    0.000
 Gap=     0.287 Goal=   None    Shift=    0.000
 RMSDP=4.34D-05 MaxDP=6.14D-03 DE= 1.31D-04 OVMax= 2.08D-02

 Cycle  21  Pass 1  IDiag  1:
 Restarting incremental Fock formation.
 CoulSu:  requested number of processors reduced to:  11 ShMem   1 Linda.
 CoulSu:  requested number of processors reduced to:  11 ShMem   1 Linda.
 CoulSu:  requested number of processors reduced to:  11 ShMem   1 Linda.
 E= -3010.14313587617     Delta-E=        0.000031957975 Rises=F Damp=F
 DIIS: error= 5.24D-05 at cycle  21 NSaved=  20.
 NSaved=20 IEnMin=16 EnMin= -3010.14351344902     IErMin=20 ErrMin= 5.24D-05
 ErrMax= 5.24D-05  0.00D+00 EMaxC= 1.00D-01 BMatC= 7.33D-06 BMatP= 1.34D-05
 IDIUse=1 WtCom= 1.00D+00 WtEn= 0.00D+00
 Coeff-Com: -0.560D-04 0.767D-04 0.901D-04 0.572D-03 0.408D-02 0.906D-02
 Coeff-Com: -0.108D-01-0.335D-01 0.125D-01 0.237D-01-0.136D+00-0.751D-01
 Coeff-Com:  0.414D+00 0.763D+00-0.250D+00 0.258D+01-0.298D+01-0.131D+01
 Coeff-Com:  0.612D+00 0.137D+01
 Coeff:     -0.560D-04 0.767D-04 0.901D-04 0.572D-03 0.408D-02 0.906D-02
 Coeff:     -0.108D-01-0.335D-01 0.125D-01 0.237D-01-0.136D+00-0.751D-01
 Coeff:      0.414D+00 0.763D+00-0.250D+00 0.258D+01-0.298D+01-0.131D+01
 Coeff:      0.612D+00 0.137D+01
 Gap=     0.289 Goal=   None    Shift=    0.000
 Gap=     0.287 Goal=   None    Shift=    0.000
 RMSDP=3.04D-05 MaxDP=3.69D-03 DE= 3.20D-05 OVMax= 1.37D-02

 Cycle  22  Pass 1  IDiag  1:
 RMSU=  3.04D-05    CP:  1.00D+00
 CoulSu:  requested number of processors reduced to:  11 ShMem   1 Linda.
 CoulSu:  requested number of processors reduced to:  11 ShMem   1 Linda.
 E= -3010.14314416102     Delta-E=       -0.000008284842 Rises=F Damp=F
 DIIS: error= 5.17D-05 at cycle  22 NSaved=  20.
 NSaved=20 IEnMin=15 EnMin= -3010.14351344902     IErMin=20 ErrMin= 5.17D-05
 ErrMax= 5.17D-05  0.00D+00 EMaxC= 1.00D-01 BMatC= 5.24D-06 BMatP= 7.33D-06
 IDIUse=1 WtCom= 1.00D+00 WtEn= 0.00D+00
 Coeff-Com: -0.169D-04-0.152D-03 0.208D-03 0.219D-02 0.462D-02-0.138D-02
 Coeff-Com: -0.173D-01-0.139D-01 0.182D-02 0.427D-01-0.864D-02-0.475D-01
 Coeff-Com:  0.263D+00 0.671D+00-0.336D+00-0.246D+00-0.436D+00-0.251D+00
 Coeff-Com:  0.395D+00 0.977D+00
 Coeff:     -0.169D-04-0.152D-03 0.208D-03 0.219D-02 0.462D-02-0.138D-02
 Coeff:     -0.173D-01-0.139D-01 0.182D-02 0.427D-01-0.864D-02-0.475D-01
 Coeff:      0.263D+00 0.671D+00-0.336D+00-0.246D+00-0.436D+00-0.251D+00
 Coeff:      0.395D+00 0.977D+00
 Gap=     0.289 Goal=   None    Shift=    0.000
 Gap=     0.287 Goal=   None    Shift=    0.000
 RMSDP=1.26D-05 MaxDP=1.72D-03 DE=-8.28D-06 OVMax= 6.55D-03

 Cycle  23  Pass 1  IDiag  1:
 RMSU=  5.12D-06    CP:  1.00D+00  1.38D+00
 CoulSu:  requested number of processors reduced to:  11 ShMem   1 Linda.
 CoulSu:  requested number of processors reduced to:  11 ShMem   1 Linda.
 E= -3010.14315813337     Delta-E=       -0.000013972350 Rises=F Damp=F
 DIIS: error= 5.09D-05 at cycle  23 NSaved=  20.
 NSaved=20 IEnMin=14 EnMin= -3010.14351344902     IErMin=20 ErrMin= 5.09D-05
 ErrMax= 5.09D-05  0.00D+00 EMaxC= 1.00D-01 BMatC= 4.60D-06 BMatP= 5.24D-06
 IDIUse=1 WtCom= 1.00D+00 WtEn= 0.00D+00
 Coeff-Com: -0.190D-03-0.102D-03 0.580D-03 0.430D-03 0.108D-02-0.229D-02
 Coeff-Com: -0.829D-02 0.866D-02 0.691D-01 0.258D-02-0.182D+00-0.915D-01
 Coeff-Com:  0.570D+00-0.126D+01 0.980D+00 0.266D+00-0.374D+00-0.518D+00
 Coeff-Com:  0.333D+00 0.121D+01
 Coeff:     -0.190D-03-0.102D-03 0.580D-03 0.430D-03 0.108D-02-0.229D-02
 Coeff:     -0.829D-02 0.866D-02 0.691D-01 0.258D-02-0.182D+00-0.915D-01
 Coeff:      0.570D+00-0.126D+01 0.980D+00 0.266D+00-0.374D+00-0.518D+00
 Coeff:      0.333D+00 0.121D+01
 Gap=     0.290 Goal=   None    Shift=    0.000
 Gap=     0.287 Goal=   None    Shift=    0.000
 RMSDP=1.49D-05 MaxDP=2.14D-03 DE=-1.40D-05 OVMax= 8.67D-03

 Cycle  24  Pass 1  IDiag  1:
 RMSU=  1.97D-06    CP:  1.00D+00  1.72D+00  3.00D+00
 CoulSu:  requested number of processors reduced to:  11 ShMem   1 Linda.
 CoulSu:  requested number of processors reduced to:  11 ShMem   1 Linda.
 E= -3010.14318167019     Delta-E=       -0.000023536830 Rises=F Damp=F
 DIIS: error= 5.23D-05 at cycle  24 NSaved=  20.
 NSaved=20 IEnMin=13 EnMin= -3010.14351344902     IErMin=19 ErrMin= 5.09D-05
 ErrMax= 5.23D-05  0.00D+00 EMaxC= 1.00D-01 BMatC= 4.20D-06 BMatP= 4.60D-06
 IDIUse=1 WtCom= 1.00D+00 WtEn= 0.00D+00
 Coeff-Com:  0.353D-04 0.683D-03 0.328D-02-0.335D-03-0.822D-02-0.392D-02
 Coeff-Com:  0.947D-03-0.252D-01-0.171D-01 0.925D-01 0.222D+00 0.130D+00
 Coeff-Com:  0.324D+00-0.574D+00-0.282D+00 0.586D-01 0.192D+00-0.221D+00
 Coeff-Com: -0.231D+00 0.134D+01
 Coeff:      0.353D-04 0.683D-03 0.328D-02-0.335D-03-0.822D-02-0.392D-02
 Coeff:      0.947D-03-0.252D-01-0.171D-01 0.925D-01 0.222D+00 0.130D+00
 Coeff:      0.324D+00-0.574D+00-0.282D+00 0.586D-01 0.192D+00-0.221D+00
 Coeff:     -0.231D+00 0.134D+01
 Gap=     0.290 Goal=   None    Shift=    0.000
 Gap=     0.287 Goal=   None    Shift=    0.000
 RMSDP=1.16D-05 MaxDP=1.82D-03 DE=-2.35D-05 OVMax= 7.21D-03

 Cycle  25  Pass 1  IDiag  1:
 RMSU=  1.00D-05    CP:  1.00D+00  1.87D+00  3.00D+00  2.78D+00
 CoulSu:  requested number of processors reduced to:  11 ShMem   1 Linda.
 CoulSu:  requested number of processors reduced to:  11 ShMem   1 Linda.
 E= -3010.14320267091     Delta-E=       -0.000021000713 Rises=F Damp=F
 DIIS: error= 5.17D-05 at cycle  25 NSaved=  20.
 NSaved=20 IEnMin=12 EnMin= -3010.14351344902     IErMin=18 ErrMin= 5.09D-05
 ErrMax= 5.17D-05  0.00D+00 EMaxC= 1.00D-01 BMatC= 4.15D-06 BMatP= 4.20D-06
 IDIUse=1 WtCom= 1.00D+00 WtEn= 0.00D+00
 Coeff-Com:  0.150D-03 0.349D-02 0.184D-02-0.662D-02-0.107D-01-0.119D-01
 Coeff-Com: -0.196D-01-0.485D-02 0.109D+00 0.252D+00 0.317D-01 0.647D+00
 Coeff-Com: -0.875D+00-0.398D+00 0.160D+00 0.495D+00-0.189D+00-0.881D+00
 Coeff-Com:  0.516D+00 0.118D+01
 Coeff:      0.150D-03 0.349D-02 0.184D-02-0.662D-02-0.107D-01-0.119D-01
 Coeff:     -0.196D-01-0.485D-02 0.109D+00 0.252D+00 0.317D-01 0.647D+00
 Coeff:     -0.875D+00-0.398D+00 0.160D+00 0.495D+00-0.189D+00-0.881D+00
 Coeff:      0.516D+00 0.118D+01
 Gap=     0.290 Goal=   None    Shift=    0.000
 Gap=     0.288 Goal=   None    Shift=    0.000
 RMSDP=1.28D-05 MaxDP=1.86D-03 DE=-2.10D-05 OVMax= 7.85D-03

 Cycle  26  Pass 1  IDiag  1:
 RMSU=  3.65D-06    CP:  1.00D+00  2.03D+00  3.00D+00  3.00D+00  2.12D+00
 CoulSu:  requested number of processors reduced to:  11 ShMem   1 Linda.
 CoulSu:  requested number of processors reduced to:  11 ShMem   1 Linda.
 E= -3010.14322606135     Delta-E=       -0.000023390445 Rises=F Damp=F
 DIIS: error= 5.12D-05 at cycle  26 NSaved=  20.
 NSaved=20 IEnMin=11 EnMin= -3010.14351344902     IErMin=17 ErrMin= 5.09D-05
 ErrMax= 5.12D-05  0.00D+00 EMaxC= 1.00D-01 BMatC= 4.11D-06 BMatP= 4.15D-06
 IDIUse=1 WtCom= 1.00D+00 WtEn= 0.00D+00
 Coeff-Com:  0.304D-02 0.255D-02-0.556D-02-0.146D-01-0.118D-01-0.252D-02
 Coeff-Com: -0.869D-03 0.726D-01 0.220D+00 0.953D-01 0.505D+00-0.743D+00
 Coeff-Com: -0.368D+00 0.123D+00 0.452D+00-0.140D+00-0.777D+00 0.407D+00
 Coeff-Com:  0.100D+01 0.183D+00
 Coeff:      0.304D-02 0.255D-02-0.556D-02-0.146D-01-0.118D-01-0.252D-02
 Coeff:     -0.869D-03 0.726D-01 0.220D+00 0.953D-01 0.505D+00-0.743D+00
 Coeff:     -0.368D+00 0.123D+00 0.452D+00-0.140D+00-0.777D+00 0.407D+00
 Coeff:      0.100D+01 0.183D+00
 Gap=     0.290 Goal=   None    Shift=    0.000
 Gap=     0.288 Goal=   None    Shift=    0.000
 RMSDP=1.38D-06 MaxDP=1.98D-04 DE=-2.34D-05 OVMax= 8.11D-04

 Cycle  27  Pass 1  IDiag  1:
 RMSU=  1.79D-07    CP:  1.00D+00  2.04D+00  3.00D+00  3.00D+00  2.23D+00
                    CP:  1.14D+00
 CoulSu:  requested number of processors reduced to:  11 ShMem   1 Linda.
 E= -3010.14322858493     Delta-E=       -0.000002523575 Rises=F Damp=F
 DIIS: error= 5.12D-05 at cycle  27 NSaved=  20.
 NSaved=20 IEnMin=10 EnMin= -3010.14351344902     IErMin=16 ErrMin= 5.09D-05
 ErrMax= 5.12D-05  0.00D+00 EMaxC= 1.00D-01 BMatC= 4.11D-06 BMatP= 4.11D-06
 IDIUse=1 WtCom= 1.00D+00 WtEn= 0.00D+00
 Large coefficients: NSaved= 20 BigCof=   10.83 CofMax=   10.00 Det=-5.72D-10
 Inversion failed.  Reducing to 19 matrices.
 Large coefficients: NSaved= 19 BigCof=   10.65 CofMax=   10.00 Det=-5.96D-10
 Inversion failed.  Reducing to 18 matrices.
 Large coefficients: NSaved= 18 BigCof=   10.23 CofMax=   10.00 Det=-6.18D-10
 Inversion failed.  Reducing to 17 matrices.
 Coeff-Com: -0.376D-01-0.264D-03 0.549D-01 0.517D-01 0.363D-01-0.380D+00
 Coeff-Com:  0.840D+00-0.626D+00-0.172D+00 0.165D+00 0.493D+00-0.171D+00
 Coeff-Com: -0.114D+01 0.777D-01 0.197D+01 0.948D+01-0.965D+01
 Coeff:     -0.376D-01-0.264D-03 0.549D-01 0.517D-01 0.363D-01-0.380D+00
 Coeff:      0.840D+00-0.626D+00-0.172D+00 0.165D+00 0.493D+00-0.171D+00
 Coeff:     -0.114D+01 0.777D-01 0.197D+01 0.948D+01-0.965D+01
 Gap=     0.290 Goal=   None    Shift=    0.000
 Gap=     0.288 Goal=   None    Shift=    0.000
 RMSDP=9.86D-06 MaxDP=1.36D-03 DE=-2.52D-06 OVMax= 5.60D-03

 Cycle  28  Pass 1  IDiag  1:
 RMSU=  1.65D-06    CP:  1.00D+00  1.96D+00  3.00D+00  3.00D+00  1.41D+00
                    CP: -4.45D-03 -3.00D+00
 CoulSu:  requested number of processors reduced to:  11 ShMem   1 Linda.
 CoulSu:  requested number of processors reduced to:  11 ShMem   1 Linda.
 E= -3010.14321065512     Delta-E=        0.000017929811 Rises=F Damp=F
 DIIS: error= 5.17D-05 at cycle  28 NSaved=  18.
 NSaved=18 IEnMin= 7 EnMin= -3010.14351344902     IErMin=13 ErrMin= 5.09D-05
 ErrMax= 5.17D-05  0.00D+00 EMaxC= 1.00D-01 BMatC= 4.00D-06 BMatP= 4.11D-06
 IDIUse=1 WtCom= 1.00D+00 WtEn= 0.00D+00
 Large coefficients: NSaved= 18 BigCof=   15.18 CofMax=   10.00 Det=-5.22D-10
 Inversion failed.  Reducing to 17 matrices.
 Large coefficients: NSaved= 17 BigCof=   12.66 CofMax=   10.00 Det=-5.82D-10
 Inversion failed.  Reducing to 16 matrices.
 Large coefficients: NSaved= 16 BigCof=   12.65 CofMax=   10.00 Det=-5.82D-10
 Inversion failed.  Reducing to 15 matrices.
 Large coefficients: NSaved= 15 BigCof=   12.25 CofMax=   10.00 Det=-5.92D-10
 Inversion failed.  Reducing to 14 matrices.
 Large coefficients: NSaved= 14 BigCof=   10.86 CofMax=   10.00 Det=-6.62D-10
 Inversion failed.  Reducing to 13 matrices.
 Large coefficients: NSaved= 13 BigCof=   10.25 CofMax=   10.00 Det=-6.71D-10
 Inversion failed.  Reducing to 12 matrices.
 Coeff-Com:  0.240D-01-0.348D-01-0.301D+00 0.314D+00-0.581D-01 0.503D-01
 Coeff-Com: -0.138D-02-0.502D+00 0.402D+00 0.875D+01-0.960D+01 0.196D+01
 Coeff:      0.240D-01-0.348D-01-0.301D+00 0.314D+00-0.581D-01 0.503D-01
 Coeff:     -0.138D-02-0.502D+00 0.402D+00 0.875D+01-0.960D+01 0.196D+01
 Gap=     0.290 Goal=   None    Shift=    0.000
 Gap=     0.287 Goal=   None    Shift=    0.000
 RMSDP=8.92D-06 MaxDP=1.11D-03 DE= 1.79D-05 OVMax= 4.45D-03

 Cycle  29  Pass 1  IDiag  1:
 RMSU=  2.50D-06    CP:  1.00D+00  1.92D+00  3.00D+00  1.79D+00  7.33D-01
                    CP: -5.90D-01 -3.00D+00  3.00D+00
 CoulSu:  requested number of processors reduced to:  11 ShMem   1 Linda.
 CoulSu:  requested number of processors reduced to:  11 ShMem   1 Linda.
 E= -3010.14319586686     Delta-E=        0.000014788255 Rises=F Damp=F
 DIIS: error= 5.21D-05 at cycle  29 NSaved=  13.
 NSaved=13 IEnMin= 4 EnMin= -3010.14351344902     IErMin=11 ErrMin= 5.12D-05
 ErrMax= 5.21D-05  0.00D+00 EMaxC= 1.00D-01 BMatC= 3.88D-06 BMatP= 4.00D-06
 IDIUse=1 WtCom= 1.00D+00 WtEn= 0.00D+00
 Coeff-Com:  0.182D-01-0.331D-01-0.200D+00 0.965D-01 0.764D-01 0.709D-01
 Coeff-Com: -0.336D-01-0.692D+00 0.449D+00 0.700D+01-0.807D+01 0.982D+00
 Coeff-Com:  0.133D+01
 Coeff:      0.182D-01-0.331D-01-0.200D+00 0.965D-01 0.764D-01 0.709D-01
 Coeff:     -0.336D-01-0.692D+00 0.449D+00 0.700D+01-0.807D+01 0.982D+00
 Coeff:      0.133D+01
 Gap=     0.290 Goal=   None    Shift=    0.000
 Gap=     0.287 Goal=   None    Shift=    0.000
 RMSDP=1.01D-05 MaxDP=1.14D-03 DE= 1.48D-05 OVMax= 4.74D-03

 Cycle  30  Pass 1  IDiag  1:
 RMSU=  5.04D-06    CP:  1.00D+00  1.88D+00  3.00D+00  2.33D-01  6.65D-02
                    CP: -1.22D+00 -3.00D+00  3.00D+00  2.58D+00
 CoulSu:  requested number of processors reduced to:  11 ShMem   1 Linda.
 CoulSu:  requested number of processors reduced to:  11 ShMem   1 Linda.
 E= -3010.14318150712     Delta-E=        0.000014359741 Rises=F Damp=F
 DIIS: error= 5.18D-05 at cycle  30 NSaved=  14.
 NSaved=14 IEnMin= 4 EnMin= -3010.14351344902     IErMin=11 ErrMin= 5.12D-05
 ErrMax= 5.18D-05  0.00D+00 EMaxC= 1.00D-01 BMatC= 3.70D-06 BMatP= 3.88D-06
 IDIUse=1 WtCom= 1.00D+00 WtEn= 0.00D+00
 Large coefficients: NSaved= 14 BigCof=   13.50 CofMax=   10.00 Det=-3.86D-10
 Inversion failed.  Reducing to 13 matrices.
 Large coefficients: NSaved= 13 BigCof=   12.64 CofMax=   10.00 Det=-3.92D-10
 Inversion failed.  Reducing to 12 matrices.
 Coeff-Com:  0.109D-01 0.343D-01-0.345D-01 0.892D-01-0.837D-01-0.205D-01
 Coeff-Com:  0.299D+00-0.665D+01 0.736D+01-0.262D+01 0.365D+00 0.225D+01
 Coeff:      0.109D-01 0.343D-01-0.345D-01 0.892D-01-0.837D-01-0.205D-01
 Coeff:      0.299D+00-0.665D+01 0.736D+01-0.262D+01 0.365D+00 0.225D+01
 Gap=     0.290 Goal=   None    Shift=    0.000
 Gap=     0.287 Goal=   None    Shift=    0.000
 RMSDP=1.10D-05 MaxDP=1.22D-03 DE= 1.44D-05 OVMax= 5.13D-03

 Cycle  31  Pass 1  IDiag  1:
 RMSU=  5.46D-06    CP:  1.00D+00  1.91D+00  3.00D+00 -6.05D-01 -1.31D-01
                    CP: -2.04D+00 -3.00D+00  3.00D+00  3.00D+00  2.58D+00
 CoulSu:  requested number of processors reduced to:  11 ShMem   1 Linda.
 CoulSu:  requested number of processors reduced to:  11 ShMem   1 Linda.
 E= -3010.14317707605     Delta-E=        0.000004431075 Rises=F Damp=F
 DIIS: error= 5.08D-05 at cycle  31 NSaved=  13.
 NSaved=13 IEnMin= 4 EnMin= -3010.14351344902     IErMin=13 ErrMin= 5.08D-05
 ErrMax= 5.08D-05  0.00D+00 EMaxC= 1.00D-01 BMatC= 3.40D-06 BMatP= 3.70D-06
 IDIUse=1 WtCom= 1.00D+00 WtEn= 0.00D+00
 Coeff-Com: -0.225D-01-0.188D-03-0.597D-01-0.577D-01 0.343D-01 0.129D+00
 Coeff-Com:  0.877D+00-0.364D+01 0.482D+01-0.228D+01-0.159D+01 0.968D+00
 Coeff-Com:  0.183D+01
 Coeff:     -0.225D-01-0.188D-03-0.597D-01-0.577D-01 0.343D-01 0.129D+00
 Coeff:      0.877D+00-0.364D+01 0.482D+01-0.228D+01-0.159D+01 0.968D+00
 Coeff:      0.183D+01
 Gap=     0.290 Goal=   None    Shift=    0.000
 Gap=     0.287 Goal=   None    Shift=    0.000
 RMSDP=1.55D-05 MaxDP=1.42D-03 DE= 4.43D-06 OVMax= 7.70D-03

 Cycle  32  Pass 1  IDiag  1:
 RMSU=  9.38D-06    CP:  1.00D+00  1.96D+00  2.63D+00 -1.88D+00 -2.55D-01
                    CP: -2.97D+00 -3.00D+00  3.00D+00  3.00D+00  3.00D+00
                    CP:  2.67D+00
 CoulSu:  requested number of processors reduced to:  11 ShMem   1 Linda.
 CoulSu:  requested number of processors reduced to:  11 ShMem   1 Linda.
 E= -3010.14317339173     Delta-E=        0.000003684318 Rises=F Damp=F
 DIIS: error= 4.83D-05 at cycle  32 NSaved=  14.
 NSaved=14 IEnMin= 4 EnMin= -3010.14351344902     IErMin=14 ErrMin= 4.83D-05
 ErrMax= 4.83D-05  0.00D+00 EMaxC= 1.00D-01 BMatC= 3.00D-06 BMatP= 3.40D-06
 IDIUse=1 WtCom= 1.00D+00 WtEn= 0.00D+00
 Coeff-Com: -0.505D-01 0.826D-02 0.226D+00-0.241D+00-0.214D-01 0.695D-01
 Coeff-Com:  0.116D+01 0.849D+01-0.895D+01 0.260D+01-0.241D+01-0.356D+01
 Coeff-Com:  0.147D+01 0.222D+01
 Coeff:     -0.505D-01 0.826D-02 0.226D+00-0.241D+00-0.214D-01 0.695D-01
 Coeff:      0.116D+01 0.849D+01-0.895D+01 0.260D+01-0.241D+01-0.356D+01
 Coeff:      0.147D+01 0.222D+01
 Gap=     0.290 Goal=   None    Shift=    0.000
 Gap=     0.288 Goal=   None    Shift=    0.000
 RMSDP=2.98D-05 MaxDP=3.68D-03 DE= 3.68D-06 OVMax= 1.76D-02

 Cycle  33  Pass 1  IDiag  1:
 RMSU=  1.80D-05    CP:  1.00D+00  2.17D+00  3.00D+00 -2.58D+00 -2.87D-01
                    CP: -3.00D+00 -3.00D+00  3.00D+00  3.00D+00  3.00D+00
                    CP:  3.00D+00  3.00D+00
 CoulSu:  requested number of processors reduced to:  11 ShMem   1 Linda.
 CoulSu:  requested number of processors reduced to:  11 ShMem   1 Linda.
 E= -3010.14318431194     Delta-E=       -0.000010920216 Rises=F Damp=F
 DIIS: error= 4.13D-05 at cycle  33 NSaved=  15.
 NSaved=15 IEnMin= 4 EnMin= -3010.14351344902     IErMin=15 ErrMin= 4.13D-05
 ErrMax= 4.13D-05  0.00D+00 EMaxC= 1.00D-01 BMatC= 2.14D-06 BMatP= 3.00D-06
 IDIUse=1 WtCom= 1.00D+00 WtEn= 0.00D+00
 Coeff-Com: -0.118D-01-0.156D-01 0.549D-01-0.274D-01 0.190D-01-0.385D-01
 Coeff-Com:  0.424D+00 0.681D+01-0.720D+01 0.170D+01-0.641D+00-0.212D+01
 Coeff-Com:  0.347D-01 0.972D+00 0.105D+01
 Coeff:     -0.118D-01-0.156D-01 0.549D-01-0.274D-01 0.190D-01-0.385D-01
 Coeff:      0.424D+00 0.681D+01-0.720D+01 0.170D+01-0.641D+00-0.212D+01
 Coeff:      0.347D-01 0.972D+00 0.105D+01
 Gap=     0.290 Goal=   None    Shift=    0.000
 Gap=     0.288 Goal=   None    Shift=    0.000
 RMSDP=1.79D-05 MaxDP=2.40D-03 DE=-1.09D-05 OVMax= 1.14D-02

 Cycle  34  Pass 1  IDiag  1:
 RMSU=  1.04D-05    CP:  1.00D+00  2.29D+00  3.00D+00 -2.05D+00  6.55D-02
                    CP: -3.00D+00 -3.00D+00  3.00D+00  3.00D+00  3.00D+00
                    CP:  3.00D+00  3.00D+00  1.75D+00
 CoulSu:  requested number of processors reduced to:  11 ShMem   1 Linda.
 CoulSu:  requested number of processors reduced to:  11 ShMem   1 Linda.
 E= -3010.14319495231     Delta-E=       -0.000010640370 Rises=F Damp=F
 DIIS: error= 3.63D-05 at cycle  34 NSaved=  16.
 NSaved=16 IEnMin= 4 EnMin= -3010.14351344902     IErMin=16 ErrMin= 3.63D-05
 ErrMax= 3.63D-05  0.00D+00 EMaxC= 1.00D-01 BMatC= 1.63D-06 BMatP= 2.14D-06
 IDIUse=1 WtCom= 1.00D+00 WtEn= 0.00D+00
 Large coefficients: NSaved= 16 BigCof=   13.84 CofMax=   10.00 Det=-4.16D-10
 Inversion failed.  Reducing to 15 matrices.
 Coeff-Com:  0.171D-01-0.260D-01-0.129D+00 0.997D-01 0.443D-01-0.104D-01
 Coeff-Com:  0.872D-02 0.174D+01-0.151D+01 0.110D+00 0.840D-02-0.431D+00
 Coeff-Com: -0.269D+00 0.185D+00 0.116D+01
 Coeff:      0.171D-01-0.260D-01-0.129D+00 0.997D-01 0.443D-01-0.104D-01
 Coeff:      0.872D-02 0.174D+01-0.151D+01 0.110D+00 0.840D-02-0.431D+00
 Coeff:     -0.269D+00 0.185D+00 0.116D+01
 Gap=     0.290 Goal=   None    Shift=    0.000
 Gap=     0.288 Goal=   None    Shift=    0.000
 RMSDP=1.84D-05 MaxDP=2.67D-03 DE=-1.06D-05 OVMax= 1.25D-02

 Cycle  35  Pass 1  IDiag  1:
 RMSU=  1.92D-06    CP:  1.00D+00  2.44D+00  3.00D+00 -1.23D+00  7.32D-01
                    CP: -3.00D+00 -3.00D+00  3.00D+00  3.00D+00  3.00D+00
                    CP:  3.00D+00  3.00D+00  2.46D+00  1.98D+00
 CoulSu:  requested number of processors reduced to:  11 ShMem   1 Linda.
 CoulSu:  requested number of processors reduced to:  11 ShMem   1 Linda.
 E= -3010.14320786710     Delta-E=       -0.000012914788 Rises=F Damp=F
 DIIS: error= 3.14D-05 at cycle  35 NSaved=  16.
 NSaved=16 IEnMin= 4 EnMin= -3010.14351344902     IErMin=16 ErrMin= 3.14D-05
 ErrMax= 3.14D-05  0.00D+00 EMaxC= 1.00D-01 BMatC= 1.30D-06 BMatP= 1.63D-06
 IDIUse=1 WtCom= 1.00D+00 WtEn= 0.00D+00
 Coeff-Com: -0.103D-01 0.674D-01 0.176D+00-0.226D+00 0.681D-01-0.803D-01
 Coeff-Com: -0.755D+00-0.351D+01 0.378D+01-0.985D+00 0.949D+00 0.170D+01
 Coeff-Com: -0.373D+00-0.252D+01-0.954D+00 0.368D+01
 Coeff:     -0.103D-01 0.674D-01 0.176D+00-0.226D+00 0.681D-01-0.803D-01
 Coeff:     -0.755D+00-0.351D+01 0.378D+01-0.985D+00 0.949D+00 0.170D+01
 Coeff:     -0.373D+00-0.252D+01-0.954D+00 0.368D+01
 Gap=     0.291 Goal=   None    Shift=    0.000
 Gap=     0.289 Goal=   None    Shift=    0.000
 RMSDP=4.78D-05 MaxDP=6.96D-03 DE=-1.29D-05 OVMax= 3.38D-02

 Cycle  36  Pass 1  IDiag  1:
 RMSU=  2.37D-05    CP:  1.00D+00  2.86D+00  3.00D+00  3.00D+00  3.00D+00
                    CP: -3.00D+00 -3.00D+00  3.00D+00  3.00D+00  3.00D+00
                    CP:  3.00D+00  3.00D+00  3.00D+00  3.00D+00  3.00D+00
 CoulSu:  requested number of processors reduced to:  11 ShMem   1 Linda.
 CoulSu:  requested number of processors reduced to:  11 ShMem   1 Linda.
 E= -3010.14323686936     Delta-E=       -0.000029002256 Rises=F Damp=F
 DIIS: error= 1.41D-05 at cycle  36 NSaved=  17.
 NSaved=17 IEnMin= 4 EnMin= -3010.14351344902     IErMin=17 ErrMin= 1.41D-05
 ErrMax= 1.41D-05  0.00D+00 EMaxC= 1.00D-01 BMatC= 5.21D-07 BMatP= 1.30D-06
 IDIUse=1 WtCom= 1.00D+00 WtEn= 0.00D+00
 Coeff-Com: -0.207D-01 0.481D-02 0.840D-01-0.991D-01 0.393D-01-0.150D-01
 Coeff-Com:  0.519D+00-0.201D+01 0.240D+01-0.114D+01-0.446D+00 0.466D+00
 Coeff-Com:  0.505D+00-0.343D+00-0.634D+00 0.343D+00 0.136D+01
 Coeff:     -0.207D-01 0.481D-02 0.840D-01-0.991D-01 0.393D-01-0.150D-01
 Coeff:      0.519D+00-0.201D+01 0.240D+01-0.114D+01-0.446D+00 0.466D+00
 Coeff:      0.505D+00-0.343D+00-0.634D+00 0.343D+00 0.136D+01
 Gap=     0.291 Goal=   None    Shift=    0.000
 Gap=     0.289 Goal=   None    Shift=    0.000
 RMSDP=2.36D-05 MaxDP=3.35D-03 DE=-2.90D-05 OVMax= 1.65D-02

 Cycle  37  Pass 1  IDiag  1:
 RMSU=  1.10D-05    CP:  1.00D+00  3.00D+00  3.00D+00  3.00D+00  3.00D+00
                    CP: -3.00D+00 -3.00D+00  3.00D+00  3.00D+00  3.00D+00
                    CP:  3.00D+00  3.00D+00  3.00D+00  3.00D+00  3.00D+00
                    CP:  1.84D+00
 CoulSu:  requested number of processors reduced to:  11 ShMem   1 Linda.
 CoulSu:  requested number of processors reduced to:  11 ShMem   1 Linda.
 E= -3010.14324383791     Delta-E=       -0.000006968556 Rises=F Damp=F
 DIIS: error= 8.14D-06 at cycle  37 NSaved=  18.
 NSaved=18 IEnMin= 4 EnMin= -3010.14351344902     IErMin=18 ErrMin= 8.14D-06
 ErrMax= 8.14D-06  0.00D+00 EMaxC= 1.00D-01 BMatC= 2.53D-07 BMatP= 5.21D-07
 IDIUse=1 WtCom= 1.00D+00 WtEn= 0.00D+00
 Coeff-Com:  0.561D-02-0.384D-01-0.758D-01 0.511D-01-0.326D-01 0.976D-01
 Coeff-Com:  0.130D+01 0.182D+00 0.169D+00-0.713D+00-0.137D+01-0.808D+00
 Coeff-Com:  0.977D+00 0.129D+01 0.291D+00-0.212D+01 0.589D+00 0.120D+01
 Coeff:      0.561D-02-0.384D-01-0.758D-01 0.511D-01-0.326D-01 0.976D-01
 Coeff:      0.130D+01 0.182D+00 0.169D+00-0.713D+00-0.137D+01-0.808D+00
 Coeff:      0.977D+00 0.129D+01 0.291D+00-0.212D+01 0.589D+00 0.120D+01
 Gap=     0.292 Goal=   None    Shift=    0.000
 Gap=     0.289 Goal=   None    Shift=    0.000
 RMSDP=1.49D-05 MaxDP=2.08D-03 DE=-6.97D-06 OVMax= 1.04D-02

 Cycle  38  Pass 1  IDiag  1:
 RMSU=  3.54D-06    CP:  1.00D+00  3.00D+00  3.00D+00  3.00D+00  3.00D+00
                    CP: -3.00D+00 -3.00D+00  3.00D+00  3.00D+00  3.00D+00
                    CP:  3.00D+00  3.00D+00  3.00D+00  3.00D+00  3.00D+00
                    CP:  2.40D+00  1.55D+00
 CoulSu:  requested number of processors reduced to:  11 ShMem   1 Linda.
 CoulSu:  requested number of processors reduced to:  11 ShMem   1 Linda.
 E= -3010.14324600332     Delta-E=       -0.000002165405 Rises=F Damp=F
 DIIS: error= 4.14D-06 at cycle  38 NSaved=  19.
 NSaved=19 IEnMin= 4 EnMin= -3010.14351344902     IErMin=19 ErrMin= 4.14D-06
 ErrMax= 4.14D-06  0.00D+00 EMaxC= 1.00D-01 BMatC= 6.93D-08 BMatP= 2.53D-07
 IDIUse=1 WtCom= 1.00D+00 WtEn= 0.00D+00
 Coeff-Com: -0.601D-02-0.170D-01 0.164D-01-0.377D-01 0.437D-02 0.478D-01
 Coeff-Com:  0.420D+00 0.352D+00-0.247D+00-0.123D+00-0.457D+00-0.353D+00
 Coeff-Com:  0.313D+00 0.406D+00 0.219D+00-0.744D+00-0.594D-01 0.400D+00
 Coeff-Com:  0.865D+00
 Coeff:     -0.601D-02-0.170D-01 0.164D-01-0.377D-01 0.437D-02 0.478D-01
 Coeff:      0.420D+00 0.352D+00-0.247D+00-0.123D+00-0.457D+00-0.353D+00
 Coeff:      0.313D+00 0.406D+00 0.219D+00-0.744D+00-0.594D-01 0.400D+00
 Coeff:      0.865D+00
 Gap=     0.292 Goal=   None    Shift=    0.000
 Gap=     0.289 Goal=   None    Shift=    0.000
 RMSDP=3.65D-06 MaxDP=5.72D-04 DE=-2.17D-06 OVMax= 2.55D-03

 Cycle  39  Pass 1  IDiag  1:
 RMSU=  1.20D-06    CP:  1.00D+00  3.00D+00  3.00D+00  3.00D+00  3.00D+00
                    CP: -3.00D+00 -3.00D+00  3.00D+00  3.00D+00  3.00D+00
                    CP:  3.00D+00  3.00D+00  3.00D+00  3.00D+00  3.00D+00
                    CP:  2.51D+00  1.74D+00  1.20D+00
 CoulSu:  requested number of processors reduced to:  11 ShMem   1 Linda.
 CoulSu:  requested number of processors reduced to:  11 ShMem   1 Linda.
 E= -3010.14324632370     Delta-E=       -0.000000320385 Rises=F Damp=F
 DIIS: error= 3.31D-06 at cycle  39 NSaved=  20.
 NSaved=20 IEnMin= 4 EnMin= -3010.14351344902     IErMin=20 ErrMin= 3.31D-06
 ErrMax= 3.31D-06  0.00D+00 EMaxC= 1.00D-01 BMatC= 2.83D-08 BMatP= 6.93D-08
 IDIUse=1 WtCom= 1.00D+00 WtEn= 0.00D+00
[...]
 6675,-0.00001266,0.00002883,0.00009582,-0.00017089,0.00013882,-0.00016
 838,-0.00003205,-0.00001581,0.00002438,-0.00001444,-0.00000233,-0.0000
 6445,0.00001610,0.00001110,-0.00000945,-0.00004921,-0.00004764,-0.0000
 4655,0.00004520,0.00003651,0.00004828,-0.00021376,-0.00016133,0.000605
 99,0.00015582,-0.00009812,0.00027959,0.00029019,0.00014990,-0.00025508
 ,0.00061857,0.00061110,-0.00060694,-0.00002265,-0.00001609,0.00003471,
 -0.00009876,-0.00006331,0.00004422,-0.00008266,0.00006218,-0.00004055,
 -0.00005792,-0.00012949,0.00035884,-0.00016126,-0.00000456,0.00045902,
 -0.00017233,-0.00014077,0.00016895,0.00126540,-0.00076161,-0.00347664,
 0.00091483,0.00300299,0.00405555,-0.00081102,-0.00611238,0.00533893,0.
 01539975,0.01397469,-0.00556868,-0.00140503,0.09827023,-0.12083485,-0.
 01045637,-0.00481329,-0.00091763,0.00211572,-0.00017109,0.00031548,0.0
 0151302,0.00099453,-0.00104944,-0.00633349,0.01489276,-0.01066511,0.09
 662712,-0.03154679,0.18849268,-0.00006658,0.00006345,0.00005552,-0.000
 04059,-0.00001852,-0.00008304,0.00000967,-0.00001675,-0.00000751,0.000
 03594,0.00001341,0.00010645,-0.00004765,-0.00006560,-0.00001321,0.0000
 2659,0.00007908,-0.00000901,0.00005963,-0.00003116,-0.00000251,-0.0000
 8185,-0.00003547,-0.00007425,0.00039753,-0.00044097,-0.00004924,0.0000
 6013,-0.00007043,0.00007848,-0.00000563,-0.00000927,0.00000124,0.00000
 818,0.00000168,-0.00001657,-0.00003473,-0.00002320,0.00000198,0.000014
 83,-0.00004978,-0.00004258,-0.00002567,0.00003839,0.00002495,-0.000009
 59,-0.00000108,-0.00000217,-0.00000667,-0.00002224,0.00000290,0.000001
 89,-0.00000637,-0.00002184,-0.00051237,0.00009049,-0.00035279,0.000006
 83,-0.00000867,0.00008634,0.00108442,-0.00085714,-0.00014865,0.0001020
 5,0.00002043,0.00013868,-0.00023372,0.00027148,0.00011447,-0.00023479,
 0.00018266,0.00004045,-0.00060023,0.00076145,0.00010216,-0.00002497,0.
 00002470,-0.00002826,-0.00012588,-0.00010013,-0.00011020,-0.00002142,-
 0.00000791,-0.00003931,0.00043345,0.00057538,0.00101869,-0.00064881,-0
 .00116532,-0.00043875,0.00002254,-0.00077255,-0.00076896,0.00259034,-0
 .00297124,0.00050217,-0.00296415,0.00138058,0.00207323,-0.00343879,0.0
 1889553,-0.01180861,-0.01445018,-0.02706856,0.03248095,-0.00128872,0.0
 0331244,-0.00150361,0.00083493,-0.00021467,-0.00004170,0.00070559,-0.0
 0011014,-0.00054188,0.01910393,0.00004687,0.00003741,-0.00001078,0.000
 01439,-0.00000436,-0.00000730,-0.00001369,-0.00001253,0.00000030,0.000
 00358,0.00000964,0.00004309,0.00001900,-0.00000488,0.00001095,-0.00000
 248,0.00002624,0.00002126,-0.00003272,-0.00008704,0.00003142,0.0000976
 8,0.00002612,0.00020664,-0.00032769,0.00000467,-0.00046144,-0.00006772
 ,-0.00003597,0.00022982,-0.00002207,0.00000382,0.00000569,-0.00000320,
 -0.00000701,0.00001651,0.00001618,0.00000508,-0.00002080,-0.00002456,0
 .00003799,0.00001403,-0.00004984,0.00003317,-0.00000177,-0.00000162,0.
 00002384,0.00001191,-0.00000463,-0.00002162,-0.00001946,0.00001617,0.0
 0000116,0.00001579,-0.00009492,0.00017599,0.00034958,0.00001191,-0.000
 01595,-0.00002788,-0.00001822,-0.00036430,-0.00040116,0.00020025,-0.00
 010094,-0.00028025,0.00001358,0.00011235,0.00011930,0.00002849,0.00008
 068,0.00002319,0.00013216,0.00002429,-0.00018493,-0.00006602,0.0000165
 3,0.00007974,-0.00005835,0.00012319,0.00014253,-0.00004848,0.00003742,
 0.00008321,0.00081282,-0.00075437,-0.00129327,-0.00062934,0.00235099,-
 0.00044643,-0.00036512,-0.00005889,0.00022152,-0.00381829,0.00001365,-
 0.00008693,0.00171464,0.00106490,-0.00112898,-0.00009310,-0.01422514,0
 .01359570,-0.00623061,-0.30160420,0.25321380,0.00105920,0.00099589,-0.
 00045649,-0.00057796,-0.00017574,0.00004472,-0.00006904,-0.00077260,0.
 00020658,0.00837712,0.31308222,0.00001320,-0.00001358,0.00003441,-0.00
 001790,-0.00002473,-0.00007417,-0.00000388,-0.00002047,-0.00003562,0.0
 0003452,0.00002099,0.00013997,-0.00001451,-0.00004505,0.00000891,0.000
 03115,0.00009241,-0.00003209,0.00000611,-0.00002511,0.00001287,0.00010
 940,0.00010021,0.00028205,-0.00014915,-0.00061013,0.00057178,0.0000004
 3,0.00002265,-0.00019603,-0.00002355,0.00000087,0.00001168,0.00001061,
 -0.00000360,-0.00000904,0.00000212,-0.00001294,-0.00000297,0.00000179,
 0.00000223,-0.00000877,-0.00001943,0.00002830,-0.00000707,-0.00000524,
 0.00002005,0.00001218,-0.00000123,-0.00002711,-0.00000501,0.00000736,-
 0.00001156,-0.00001781,-0.00053141,0.00047682,-0.00012554,0.00006552,-
 0.00001360,-0.00009083,0.00087271,-0.00127990,-0.00032184,0.00020364,-
 0.00020725,-0.00003612,-0.00018842,0.00037705,0.00018265,-0.00013570,0
 .00028360,0.00004616,-0.00014997,0.00085339,-0.00019663,-0.00006738,0.
 00005838,0.00000793,-0.00004363,0.00003583,-0.00007033,-0.00004941,0.0
 0005897,0.00000670,0.00006755,-0.00010201,0.00121957,0.00127849,-0.001
 76365,-0.00316690,-0.00001881,-0.00023072,-0.00044130,0.00222616,-0.00
 109242,-0.00146140,-0.00034886,-0.00007444,0.00167535,0.00339777,-0.00
 267231,-0.00036232,0.01486050,0.26894221,-0.24077325,-0.00056996,0.000
 94873,0.00074365,0.00021754,-0.00004477,-0.00025172,-0.00013163,0.0001
 1719,-0.00038073,-0.02109030,-0.26423019,0.24240241,-0.00000378,0.0000
 0556,0.00003406,-0.00001379,-0.00000062,-0.00002195,0.00000562,-0.0000
 0303,0.00000929,0.00000708,0.00000194,0.00000961,-0.00002185,-0.000014
 97,-0.00002108,0.00000479,0.00001445,0.00000426,0.00004647,0.00000587,
 -0.00001480,-0.00001888,0.00001480,-0.00001363,0.00003634,-0.00000626,
 0.00000307,0.00000218,-0.00001278,0.00000830,0.00000252,0.00000043,0.0
 0000133,0.00000460,0.00000217,-0.00000668,-0.00000856,-0.00000807,0.00
 000199,0.00001494,-0.00003149,-0.00003100,-0.00000771,-0.00001642,0.00
 001697,-0.00000328,-0.00000026,0.00000015,-0.00000416,-0.00000574,0.00
 000047,-0.00000244,-0.00000353,-0.00000722,-0.00011156,-0.00000023,-0.
 00012927,-0.00001282,0.00000235,0.00000336,0.00029757,-0.00002859,-0.0
 0004375,0.00004740,0.00000773,0.00006780,-0.00006286,0.00001063,0.0000
 2016,-0.00009807,-0.00001367,0.00002947,-0.00008041,0.00002818,0.00001
 536,-0.00000627,0.00000005,-0.00002387,0.00000341,-0.00007359,-0.00004
 610,-0.00000608,-0.00000534,-0.00002355,-0.00021133,0.00023820,0.00033
 759,0.00067749,-0.00049223,-0.00379099,-0.00007470,-0.00014210,-0.0001
 7125,-0.00077098,-0.00136774,-0.00010599,0.00017333,0.00004375,0.00065
 507,0.00189363,0.00197767,-0.00239115,-0.00172242,0.00032355,-0.000183
 86,-0.09296929,0.11506739,0.16711313,-0.00005671,-0.00005919,-0.000304
 08,-0.00006994,0.00005624,-0.00010764,-0.00028579,0.00005679,0.0002555
 1,0.09350389,-0.00001280,0.00002159,-0.00000655,0.00000230,0.00000423,
 0.00000265,0.00000007,-0.00000007,0.00001122,-0.00000194,-0.00000165,-
 0.00001379,-0.00000129,0.00000666,-0.00000510,0.00000011,-0.00000803,-
 0.00000150,0.00001072,0.00001851,-0.00000468,-0.00000332,0.00000205,-0
 .00000814,0.00001971,0.00003783,0.00000974,-0.00000205,-0.00000647,0.0
 0001260,0.00000295,-0.00000051,-0.00000263,-0.00000090,-0.00000012,0.0
 0000195,-0.00000539,-0.00000122,-0.00000202,-0.00000178,-0.00001236,-0
 .00000458,-0.00000491,-0.00000984,-0.00000354,0.00000256,-0.00000335,-
 0.00000327,-0.00000456,0.00000136,-0.00000155,-0.00000050,0.00000108,0
 .00000295,0.00002493,-0.00004934,0.00001944,-0.00001214,0.00000286,0.0
 0000483,-0.00002696,0.00017585,0.00000785,0.00000763,0.00005387,0.0000
 1385,0.00000448,-0.00004450,-0.00000428,-0.00001102,-0.00005949,0.0000
 1333,0.00001014,-0.00008228,-0.00000691,0.00000003,-0.00000884,0.00000
 226,0.00001036,-0.00001381,0.00001877,0.00000019,-0.00000875,0.0000011
 4,0.00002906,0.00001022,-0.00011150,0.00038705,0.00048555,0.00087364,-
 0.00004133,-0.00007312,-0.00004141,-0.00128341,-0.00259056,0.00155935,
 0.00018493,0.00005194,0.00003690,-0.00369230,0.00306182,0.01461727,0.0
 0015075,-0.00145558,-0.00113996,0.12005645,-0.15844304,-0.21623236,-0.
 00001097,-0.00007642,-0.00007078,-0.00007559,-0.00017312,0.00009777,-0
 .00002756,-0.00021389,-0.00002045,-0.11562872,0.15930500,0.00005817,-0
 .00001145,-0.00000070,0.00000593,-0.00000444,-0.00000711,-0.00000374,-
 0.00000690,-0.00000374,0.00000132,0.00000888,0.00002026,0.00000547,-0.
 00001105,-0.00000253,-0.00000439,0.00001810,0.00000651,0.00000201,-0.0
 0002659,-0.00000462,0.00001418,0.00000765,0.00001086,-0.00001281,-0.00
 004399,-0.00002527,-0.00000672,-0.00000169,-0.00000743,-0.00000778,0.0
 0000716,0.00000362,0.00000068,-0.00000356,0.00000702,0.00001754,0.0000
 0621,-0.00000631,0.00000116,0.00001598,-0.00001899,0.00000060,-0.00004
 074,-0.00000297,-0.00000203,0.00000924,0.00000573,-0.00000134,-0.00001
 131,-0.00000833,0.00000757,0.00000061,0.00000536,-0.00001290,0.0000560
 0,0.00009505,0.00000882,0.00000197,-0.00002015,0.00005219,-0.00018648,
 -0.00015902,0.00006076,-0.00006593,-0.00013548,-0.00000298,0.00005106,
 0.00005749,-0.00001438,0.00004886,0.00002087,-0.00003616,0.00010121,0.
 00001816,-0.00002805,0.00000154,0.00002766,0.00007242,0.00005358,0.000
 13095,-0.00001465,0.00002255,0.00004166,-0.00034671,-0.00010705,-0.000
 56708,-0.00040605,0.00132077,-0.00117537,-0.00015014,0.00025218,0.0003
 4325,-0.00185539,0.00001286,0.00135347,0.00133987,0.00001441,-0.000924
 75,0.01061434,-0.01227238,-0.02316123,0.00092250,-0.00295854,0.0039300
 5,0.15127987,-0.18667647,-0.30544962,-0.00049786,0.00001553,-0.0000372
 3,-0.00026188,-0.00015257,0.00022101,0.00037012,0.00022085,0.00063512,
 -0.16137935,0.20030382,0.32468446,0.00022295,-0.00001772,-0.00002445,0
 .00001238,-0.00000080,0.00001156,-0.00000598,-0.00000580,0.,-0.0000050
 1,0.00000658,0.00000171,0.00001694,0.00000512,0.00000884,-0.00000583,0
 .00000451,0.00000408,-0.00002711,-0.00002246,0.00001497,0.00001561,-0.
 00000428,0.00000845,-0.00002358,0.00000959,0.00001190,-0.00000528,-0.0
 0000426,0.00000104,-0.00000993,0.00001882,0.00001646,-0.00000813,-0.00
 000326,0.00001593,0.00003610,0.00000252,-0.00002727,-0.00001775,0.0000
 3533,0.00001367,-0.00003087,-0.00000418,-0.00003072,0.00000186,0.00001
 738,0.00000755,-0.00000521,-0.00001357,-0.00001433,0.00001506,0.000005
 75,0.00001635,0.00006946,0.00008194,0.00029000,0.00000769,0.00000141,-
 0.00003043,-0.00016958,-0.00001267,-0.00014308,0.00012701,-0.00001628,
 -0.00023386,0.00005066,0.00000388,0.00004214,0.00005203,0.00000961,0.0
 0001462,0.00002936,0.00000772,0.00000464,-0.00006844,-0.00001171,0.000
 06980,-0.00000522,0.00009683,0.00022966,-0.00003460,0.00001156,0.00007
 760,0.00010571,-0.00057959,-0.00123151,0.00037663,0.00087264,0.0011788
 5,-0.00095172,-0.00048712,0.00099005,0.00381917,-0.00119074,0.00210519
 ,-0.00785163,0.01395218,-0.02468629,-0.00350346,-0.00142313,-0.0001368
 6,0.00088361,-0.00019867,-0.00001425,0.00071415,0.00027743,-0.00025640
 ,-0.01848171,-0.00379438,0.00221806,-0.00187554,0.00133246,-0.00233698
 ,-0.00017266,0.00013272,-0.00007040,-0.00009294,-0.00002076,0.00015708
 ,0.02714340,-0.00014940,0.00066028,-0.00033532,0.00000491,0.00000076,0
 .00000635,-0.00000226,0.00000015,0.00000190,-0.00000428,-0.00000187,-0
 .00000851,0.00000189,0.00000343,-0.00000266,-0.00000316,-0.00000884,-0
 .00000333,0.00000168,0.00000895,-0.00000030,0.00000201,-0.00000477,-0.
 00000370,0.00000210,0.00000797,-0.00000237,-0.00000228,-0.00000140,0.0
 0000744,0.00000633,-0.00001026,-0.00002297,0.00000111,-0.00000439,0.00
 000886,-0.00001446,0.00001652,0.00000783,0.00005177,-0.00003400,-0.000
 02331,0.00011993,-0.00005792,-0.00007302,-0.00000180,-0.00000618,-0.00
 000922,-0.00000074,0.00000419,-0.00000176,0.00000337,0.00000455,0.0000
 0917,0.00008679,-0.00008766,-0.00001326,0.00000522,-0.00001314,0.00001
 944,-0.00008572,0.00006366,0.00002672,-0.00005429,0.00009049,-0.000070
 13,0.00002037,-0.00001621,-0.00000626,0.00000944,-0.00001749,0.0000024
 6,0.00002397,-0.00003096,-0.00000742,0.00002186,-0.00002003,0.00003135
 ,-0.00005847,-0.00009223,0.00012242,0.00001875,-0.00001988,0.00002631,
 -0.00010585,0.00041877,0.00021419,0.00002734,-0.00070343,-0.00038566,-
 0.00188560,-0.00256251,-0.00081495,-0.00301894,-0.00113759,-0.00080224
 ,-0.00157293,-0.00091299,0.00292182,0.00109553,0.00178184,-0.00025372,
 -0.00035920,-0.00018657,-0.00000174,-0.00003869,-0.00042899,0.00010618
 ,0.01355908,-0.16406949,0.24397405,0.00112948,0.00060690,0.00139798,0.
 00010353,-0.00000761,0.00006686,0.00008658,0.00006755,-0.00001457,-0.0
 0896760,0.16599824,-0.00013357,0.00009790,-0.00079633,0.00001997,0.000
 00005,0.00002402,-0.00001000,-0.00000078,-0.00000737,-0.00001081,0.000
 00188,-0.00000891,0.00002290,0.00001254,0.00000170,-0.00001519,-0.0000
 1078,0.00000368,-0.00002180,-0.00001411,0.00001410,0.00002120,-0.00001
 295,-0.00000020,-0.00001747,0.00001037,0.00000596,-0.00001035,0.000006
 47,0.00000108,-0.00000559,0.00000408,-0.00000542,0.00000523,0.00000404
 ,0.00003102,0.00004270,0.00004793,-0.00001093,0.00003592,0.00004532,0.
 00004807,0.00006932,-0.00008615,-0.00005296,-0.00000217,0.00000591,0.0
 0000107,0.00000544,0.00000160,-0.00000521,0.00000808,0.00000311,0.0000
 1701,0.00026442,0.00004263,0.00022110,-0.00000774,0.00000959,-0.000047
 72,-0.00035127,0.00003749,-0.00004172,-0.00009271,-0.00008007,-0.00023
 077,0.00009208,-0.00000954,0.00002229,0.00009194,0.00001285,-0.0000009
 4,0.00007409,-0.00002460,-0.00000182,-0.00000675,-0.00002866,0.0000558
 0,0.00005504,0.00013886,0.00014368,0.00001901,0.00002065,0.00005623,-0
 .00078138,-0.00032327,-0.00020449,0.00042034,0.00011862,-0.00029644,0.
 00113009,-0.00036159,0.00186125,0.00380790,-0.00047237,-0.00129759,-0.
 00081929,0.00816561,-0.01023468,-0.00130099,-0.00072365,0.00170038,0.0
 0042645,-0.00006363,-0.00030905,-0.00022594,0.00011771,-0.00082815,-0.
 02430094,0.23944514,-0.37777488,-0.00029878,-0.00054899,0.00215053,-0.
 00010300,0.00009692,0.00000508,0.00017910,0.00002870,0.00010425,0.0216
 6530,-0.24598007,0.38598227,0.00020491,-0.00023744,0.00008666,-0.00000
 001,-0.00000259,-0.00000042,0.00000003,-0.00000516,-0.00000714,0.00000
 165,0.00000659,0.00000921,0.00000383,-0.00000388,0.00000252,-0.0000009
 7,0.00001044,-0.00000442,-0.00000942,-0.00000985,0.00000540,0.00000802
 ,0.00000687,0.00000223,-0.00000799,-0.00001575,0.00001511,-0.00000109,
 0.00000346,-0.00003108,-0.00000780,0.00001300,0.00000890,0.00000288,0.
 00000045,0.00001222,0.00004192,-0.00000087,-0.00004378,-0.00000828,0.0
 0002191,0.00001592,-0.00001031,-0.00000696,-0.00002697,0.00000041,0.00
 001390,0.00000537,-0.00000671,-0.00001485,-0.00001133,0.00001139,0.000
 00302,0.00000675,-0.00002073,0.00004155,0.00011680,0.00000838,-0.00002
 063,0.00000078,0.00001285,-0.00011376,-0.00007806,0.00014970,-0.000035
 74,-0.00021476,0.00000717,0.00002711,0.00003074,0.00000787,0.00003184,
 0.00001502,-0.00001075,0.00004970,0.00003970,-0.00008424,-0.00000482,0
 .00007991,0.00001372,0.00007394,0.00011542,-0.00004005,0.00000042,0.00
 004855,-0.00025170,-0.00011260,-0.00033145,0.00007284,0.00029423,0.000
 27249,0.00153310,0.00396239,-0.00019131,0.00045107,0.00091424,0.000580
 47,0.00004839,-0.00186855,-0.00351856,-0.00032653,-0.00070933,0.000146
 23,0.00011098,0.00028355,-0.00000346,-0.00000630,0.00014522,-0.0001530
 7,-0.00199840,0.00079648,-0.00082630,-0.22551948,-0.24922675,-0.095663
 15,-0.00017701,-0.00013394,-0.00003131,-0.00000462,-0.00003421,0.00005
 272,-0.00034760,-0.00005738,0.00005923,0.22614888,-0.00034151,-0.00039
 605,-0.00012280,0.00001522,0.00000076,0.00001726,-0.00000941,-0.000000
 99,0.00000116,-0.00000974,-0.00000145,-0.00000986,0.00001809,0.0000153
 5,-0.00000016,-0.00001130,-0.00000958,0.00000278,-0.00001816,-0.000015
 97,0.00001282,0.00002338,-0.00000463,0.00000637,-0.00002530,0.00001549
 ,0.00001511,-0.00002252,0.00000795,0.00000672,-0.00000015,0.00001146,0
 .00000298,0.00000865,0.00000220,0.00001914,0.00002616,0.00001368,0.000
 00622,0.00000275,0.00001977,0.00000692,0.00000794,-0.00000409,0.000004
 05,-0.00000312,0.00000709,0.00000332,0.00000730,0.00000434,-0.00000175
 ,0.00000301,-0.00000199,0.00001013,0.00015719,0.00007834,0.00021204,-0
 .00002295,0.00001197,-0.00010151,-0.00029603,0.00008120,-0.00009280,-0
 .00007562,-0.00006615,-0.00005965,0.00007296,-0.00001570,0.00002582,0.
 00007941,-0.00000509,0.00000788,0.00008058,-0.00004265,-0.00001872,-0.
 00000558,-0.00001497,-0.00000731,-0.00001339,0.00006182,0.00006077,0.0
 0001962,0.00003099,0.00002748,0.00006431,-0.00043370,-0.00036260,0.000
 24926,0.00037918,0.00032020,0.00030954,-0.00245993,0.00109410,0.002590
 41,0.00115651,-0.00151025,-0.01639424,-0.02025351,-0.00283519,-0.00172
 235,-0.00052479,0.00045196,0.00047063,-0.00026450,-0.00009535,0.000270
 85,0.00009892,-0.00024799,-0.00065169,0.00335755,-0.00338299,-0.230535
 15,-0.27317220,-0.09063081,-0.00009703,0.00017979,0.00001925,-0.000029
 77,0.00002840,0.00004473,-0.00010700,0.00070216,0.00026525,0.24591474,
 0.29142302,0.00000270,0.00017943,0.00010993,-0.00000136,0.00000069,-0.
 00000584,0.00000029,0.00000565,-0.00000770,0.00000043,-0.00000135,-0.0
 0000126,-0.00000300,-0.00000360,0.00000010,0.00000268,-0.00000382,0.00
 000399,0.00000358,0.00000852,-0.00000589,-0.00000372,0.00000126,-0.000
 00196,0.00000697,0.00000192,-0.00001093,0.00000282,0.00000521,0.000008
 47,0.00000913,0.00000960,-0.00000124,-0.00000785,-0.00001088,-0.000028
 52,-0.00002133,-0.00000822,0.00006076,0.00000329,-0.00000482,-0.000009
 59,-0.00000228,-0.00000264,0.00002396,-0.00000772,-0.00001095,-0.00000
 541,0.00001120,0.00001388,0.00001206,-0.00001186,-0.00000622,-0.000010
 90,-0.00001132,-0.00006890,-0.00018784,0.00001118,0.00000867,0.0001149
 3,0.00004869,-0.00002602,0.00007766,-0.00020100,-0.00002413,0.00018714
 ,-0.00001899,-0.00000182,-0.00001706,-0.00000939,0.00000176,-0.0000122
 0,-0.00001052,-0.00001076,-0.00000963,0.00008274,0.00002278,-0.0000840
 8,0.00002816,-0.00002137,-0.00010409,0.00005900,0.00000504,-0.00004643
 ,0.00003789,0.00021461,0.00025072,-0.00003417,-0.00022111,-0.00029527,
 -0.00069972,0.00029466,0.00046835,0.00022027,0.00046236,-0.00318422,0.
 01075179,0.01876940,0.00039963,0.00004150,0.00028473,0.00002716,-0.000
 09954,-0.00014776,-0.00007326,0.00001386,-0.00000496,-0.00015031,-0.00
 022988,-0.00184956,-0.00053432,-0.10958445,-0.11467971,-0.05779493,0.0
 0009919,0.00005303,0.00006902,0.00005117,0.00004499,-0.00000487,0.0000
 6134,-0.00011483,-0.00029498,0.09940821,0.09683527,0.06106885\\-0.0000
 0104,-0.00000311,-0.00000064,-0.00000047,-0.00000153,0.00000076,-0.000
 00224,-0.00000130,-0.00000097,-0.00000013,-0.00000016,0.00000065,0.000
 00028,-0.00000140,-0.00000003,0.00000037,0.00000004,-0.00000046,0.0000
 0101,0.00000010,0.00000007,0.00000011,0.00000062,0.00000019,0.00000006
 ,-0.00000046,-0.00000055,0.00000078,-0.00000058,0.00000073,0.,0.000000
 58,0.00000028,-0.00000073,-0.00000040,0.00000016,-0.00000111,0.0000003
 3,0.00000055,0.00000216,-0.00000147,-0.00000088,0.00000047,0.00000015,
 0.00000003,-0.00000056,-0.00000052,0.00000061,-0.00000093,0.00000014,-
 0.00000076,0.00000100,-0.00000098,-0.00000042,-0.00000469,0.00000091,0
 .00000453,0.00000214,-0.00000084,0.00000120,-0.00000169,0.00000075,-0.
 00000248,0.00000835,0.00000349,-0.00000059,0.00000348,0.00000216,0.000
 00015,-0.00000228,0.00000212,0.00000003,0.00000068,0.00000118,-0.00000
 056,0.00000089,-0.00000156,-0.00000314,-0.00000564,-0.00000107,0.00000
 316,-0.00000135,0.00000008,0.00000234,0.00000066,0.00000020,-0.0000067
 4,0.00000061,-0.00000366,0.00000534,-0.00000373,0.00000750,-0.00000358
 ,-0.00000099,0.00000407,-0.00000197,0.00000548,-0.00000318,0.00000638,
 0.00000115,-0.00000595,-0.00000194,0.00123723,0.00330881,-0.00093288,-
 0.00166170,0.00424870,0.00188655,-0.00322038,-0.00218134,0.00141931,0.
 00437184,0.00063251,0.00486276,0.00013480,-0.00511593,0.00294194,0.002
 10921,-0.00213296,-0.00505738,0.00010580,0.00256396,-0.00263331,-0.003
 07892,-0.00132001,-0.00248842\\\@


 If fifty million people say a stupid thing,
 it is still a stupid thing.
                   -- Anatole France
 Job cpu time:       4 days 18 hours 23 minutes  1.6 seconds.
 File lengths (MBytes):  RWF=   2361 Int=      0 D2E=      0 Chk=     24 Scr=      1
 Normal termination of Gaussian 09 at Mon Jul 17 03:06:15 2017.
411395.504u 386.429s 14:35:25.79 783.9%	0+0k 597656+12059984io 21pf+0w
