 Entering Gaussian System, Link 0=/sw/chem/g09/g09
 Initial command:
 /sw/chem/g09/l1.exe "/scratch_local/craigv/TiGraftWumboFine/Gau-80659.inp" -scrdir="/scratch_local/craigv/TiGraftWumboFine/"
 Entering Link 1 = /sw/chem/g09/l1.exe PID=     80660.
  
 Copyright (c) 1988,1990,1992,1993,1995,1998,2003,2009,2013,
            Gaussian, Inc.  All Rights Reserved.
  
 This is part of the Gaussian(R) 09 program.  It is based on
 the Gaussian(R) 03 system (copyright 2003, Gaussian, Inc.),
 the Gaussian(R) 98 system (copyright 1998, Gaussian, Inc.),
 the Gaussian(R) 94 system (copyright 1995, Gaussian, Inc.),
 the Gaussian 92(TM) system (copyright 1992, Gaussian, Inc.),
 the Gaussian 90(TM) system (copyright 1990, Gaussian, Inc.),
 the Gaussian 88(TM) system (copyright 1988, Gaussian, Inc.),
 the Gaussian 86(TM) system (copyright 1986, Carnegie Mellon
 University), and the Gaussian 82(TM) system (copyright 1983,
 Carnegie Mellon University). Gaussian is a federally registered
 trademark of Gaussian, Inc.
  
 This software contains proprietary and confidential information,
 including trade secrets, belonging to Gaussian, Inc.
  
 This software is provided under written license and may be
 used, copied, transmitted, or stored only in accord with that
 written license.
  
 The following legend is applicable only to US Government
 contracts under FAR:
  
                    RESTRICTED RIGHTS LEGEND
  
 Use, reproduction and disclosure by the US Government is
 subject to restrictions as set forth in subparagraphs (a)
 and (c) of the Commercial Computer Software - Restricted
 Rights clause in FAR 52.227-19.
  
 Gaussian, Inc.
 340 Quinnipiac St., Bldg. 40, Wallingford CT 06492
  
  
 ---------------------------------------------------------------
 Warning -- This program may not be used in any manner that
 competes with the business of Gaussian, Inc. or will provide
 assistance to any competitor of Gaussian, Inc.  The licensee
 of this program is prohibited from giving any competitor of
 Gaussian, Inc. access to this program.  By using this program,
 the user acknowledges that Gaussian, Inc. is engaged in the
 business of creating and licensing software in the field of
 computational chemistry and represents and warrants to the
 licensee that it is not a competitor of Gaussian, Inc. and that
 it will not use this program in any manner prohibited above.
 ---------------------------------------------------------------
  

 Cite this work as:
 Gaussian 09, Revision D.01,
 M. J. Frisch, G. W. Trucks, H. B. Schlegel, G. E. Scuseria, 
 M. A. Robb, J. R. Cheeseman, G. Scalmani, V. Barone, B. Mennucci, 
 G. A. Petersson, H. Nakatsuji, M. Caricato, X. Li, H. P. Hratchian, 
 A. F. Izmaylov, J. Bloino, G. Zheng, J. L. Sonnenberg, M. Hada, 
 M. Ehara, K. Toyota, R. Fukuda, J. Hasegawa, M. Ishida, T. Nakajima, 
 Y. Honda, O. Kitao, H. Nakai, T. Vreven, J. A. Montgomery, Jr., 
 J. E. Peralta, F. Ogliaro, M. Bearpark, J. J. Heyd, E. Brothers, 
 K. N. Kudin, V. N. Staroverov, T. Keith, R. Kobayashi, J. Normand, 
 K. Raghavachari, A. Rendell, J. C. Burant, S. S. Iyengar, J. Tomasi, 
 M. Cossi, N. Rega, J. M. Millam, M. Klene, J. E. Knox, J. B. Cross, 
 V. Bakken, C. Adamo, J. Jaramillo, R. Gomperts, R. E. Stratmann, 
 O. Yazyev, A. J. Austin, R. Cammi, C. Pomelli, J. W. Ochterski, 
 R. L. Martin, K. Morokuma, V. G. Zakrzewski, G. A. Voth, 
 P. Salvador, J. J. Dannenberg, S. Dapprich, A. D. Daniels, 
 O. Farkas, J. B. Foresman, J. V. Ortiz, J. Cioslowski, 
 and D. J. Fox, Gaussian, Inc., Wallingford CT, 2013.
 
 ******************************************
 Gaussian 09:  ES64L-G09RevD.01 24-Apr-2013
                23-Aug-2017 
 ******************************************
 %nprocshared=24
 Will use up to   24 processors via shared memory.
 ----------------------------------------------------------------------
 #p wb97xd/gen nosymm punch(derivatives) freq temp=373.15 int=grid=1999
 74
 ----------------------------------------------------------------------
 1/10=4,30=1,38=1,112=373150/1,3;
 2/12=2,15=1,17=6,18=5,40=1/2;
 3/5=7,11=2,16=1,25=1,30=1,71=2,74=-58,75=199974,140=1/1,2,3;
 4//1;
 5/5=2,38=5,98=1/2;
 8/6=4,10=90,11=11/1;
 11/6=1,8=1,9=11,15=111,16=1,31=1/1,2,10;
 10/6=1,31=1/2;
 6/7=2,8=2,9=2,10=2,18=1,28=1/1;
 7/8=1,10=1,25=1,30=1/1,2,3,16;
 1/10=4,30=1/3;
 99/10=4/99;
 Leave Link    1 at Wed Aug 23 11:01:29 2017, MaxMem=           0 cpu:         2.4
 (Enter /sw/chem/g09/l101.exe)
 ---------------
 TiCl4 on silica
 ---------------
 Symbolic Z-matrix:
 Charge =  0 Multiplicity = 1
 Ti                    2.46112  -0.85294   0.20616 
 Cl                    4.3039   -0.07513   1.1212 
 Cl                    2.97804  -2.19195  -1.43277 
 Cl                    1.27068  -1.82388   1.75413 
 Ti                   -2.31249  -1.01049  -0.10115 
 Cl                   -0.86057  -1.83502  -1.52814 
 Cl                   -4.22522  -0.7394   -1.10874 
 Cl                   -2.57464  -2.33548   1.61604 
 Si                   -1.56963   2.20361   0.60239 
 O                     0.0671    2.44868   0.6744 
 Si                    1.25714   2.19665  -0.41598 
 O                     1.6348    0.56847  -0.37777 
 O                    -1.74607   0.54547   0.43966 
 O(Iso=10000000)       0.57175   2.62322  -1.84629 
 H(Iso=10000000)       1.12155   2.65121  -2.62664 
 O(Iso=10000000)       2.66727   3.00393  -0.19149 
 O(Iso=10000000)      -2.26519   2.96319  -0.65893 
 O(Iso=10000000)      -2.34256   2.69866   1.94634 
 H(Iso=10000000)       3.30297   2.57558   0.38107 
 H(Iso=10000000)      -1.68479   3.1174   -1.41049 
 H(Iso=10000000)      -2.06647   2.31509   2.77728 
 
 NAtoms=     21 NQM=       21 NQMF=       0 NMMI=      0 NMMIF=      0
                NMic=       0 NMicF=      0.
                    Isotopes and Nuclear Properties:
 (Nuclear quadrupole moments (NQMom) in fm**2, nuclear magnetic moments (NMagM)
  in nuclear magnetons)

  Atom         1           2           3           4           5           6           7           8           9          10
 IAtWgt=          48          35          35          35          48          35          35          35          28          16
 AtmWgt=  47.9479467  34.9688527  34.9688527  34.9688527  47.9479467  34.9688527  34.9688527  34.9688527  27.9769284  15.9949146
 NucSpn=           0           3           3           3           0           3           3           3           0           0
 AtZEff=   0.0000000   0.0000000   0.0000000   0.0000000   0.0000000   0.0000000   0.0000000   0.0000000   0.0000000   0.0000000
 NQMom=    0.0000000  -8.1650000  -8.1650000  -8.1650000   0.0000000  -8.1650000  -8.1650000  -8.1650000   0.0000000   0.0000000
 NMagM=    0.0000000   0.8218740   0.8218740   0.8218740   0.0000000   0.8218740   0.8218740   0.8218740   0.0000000   0.0000000
 AtZNuc=  22.0000000  17.0000000  17.0000000  17.0000000  22.0000000  17.0000000  17.0000000  17.0000000  14.0000000   8.0000000

  Atom        11          12          13          14          15          16          17          18          19          20
 IAtWgt=          28          16          16    10000000    10000000    10000000    10000000    10000000    10000000    10000000
 AtmWgt=  27.9769284  15.9949146  15.9949146************************************************************************************
 NucSpn=           0           0           0           0           0           0           0           0           0           0
 AtZEff=   0.0000000   0.0000000   0.0000000   0.0000000   0.0000000   0.0000000   0.0000000   0.0000000   0.0000000   0.0000000
 NQMom=    0.0000000   0.0000000   0.0000000   0.0000000   0.0000000   0.0000000   0.0000000   0.0000000   0.0000000   0.0000000
 NMagM=    0.0000000   0.0000000   0.0000000   0.0000000   0.0000000   0.0000000   0.0000000   0.0000000   0.0000000   0.0000000
 AtZNuc=  14.0000000   8.0000000   8.0000000   8.0000000   1.0000000   8.0000000   8.0000000   8.0000000   1.0000000   1.0000000

  Atom        21
 IAtWgt=    10000000
 AtmWgt=************
 NucSpn=           0
 AtZEff=   0.0000000
 NQMom=    0.0000000
 NMagM=    0.0000000
 AtZNuc=   1.0000000
 Leave Link  101 at Wed Aug 23 11:01:29 2017, MaxMem=    33554432 cpu:         3.7
 (Enter /sw/chem/g09/l103.exe)

 GradGradGradGradGradGradGradGradGradGradGradGradGradGradGradGradGradGrad
 Berny optimization.
 Initialization pass.
 Trust Radius=3.00D-01 FncErr=1.00D-07 GrdErr=1.00D-07
 Number of steps in this run=      2 maximum allowed number of steps=      2.
 GradGradGradGradGradGradGradGradGradGradGradGradGradGradGradGradGradGrad

 Leave Link  103 at Wed Aug 23 11:01:29 2017, MaxMem=    33554432 cpu:         0.8
 (Enter /sw/chem/g09/l202.exe)
                          Input orientation:                          
 ---------------------------------------------------------------------
 Center     Atomic      Atomic             Coordinates (Angstroms)
 Number     Number       Type             X           Y           Z
 ---------------------------------------------------------------------
      1         22           0        2.461118   -0.852939    0.206155
      2         17           0        4.303896   -0.075130    1.121202
      3         17           0        2.978039   -2.191951   -1.432767
      4         17           0        1.270682   -1.823881    1.754128
      5         22           0       -2.312491   -1.010489   -0.101147
      6         17           0       -0.860574   -1.835022   -1.528142
      7         17           0       -4.225219   -0.739403   -1.108739
      8         17           0       -2.574640   -2.335482    1.616039
      9         14           0       -1.569630    2.203606    0.602386
     10          8           0        0.067104    2.448676    0.674399
     11         14           0        1.257138    2.196647   -0.415983
     12          8           0        1.634798    0.568472   -0.377767
     13          8           0       -1.746067    0.545468    0.439655
     14          8           0        0.571746    2.623215   -1.846287
     15          1           0        1.121545    2.651206   -2.626643
     16          8           0        2.667272    3.003925   -0.191489
     17          8           0       -2.265191    2.963191   -0.658934
     18          8           0       -2.342562    2.698658    1.946338
     19          1           0        3.302969    2.575579    0.381072
     20          1           0       -1.684793    3.117403   -1.410487
     21          1           0       -2.066469    2.315089    2.777277
 ---------------------------------------------------------------------
                    Distance matrix (angstroms):
                    1          2          3          4          5
     1  Ti   0.000000
     2  Cl   2.199575   0.000000
     3  Cl   2.178583   3.572336   0.000000
     4  Cl   2.180845   3.557965   3.634122   0.000000
     5  Ti   4.786084   6.793056   5.582004   4.116161   0.000000
     6  Cl   3.873746   6.065311   3.856351   3.913524   2.196414
     7  Cl   6.815346   8.840797   7.355394   6.291028   2.178820
     8  Cl   5.435491   7.257294   6.336250   3.881663   2.184733
     9  Si   5.074091   6.321401   6.644100   5.061080   3.373012
    10  O    4.105023   4.951731   5.869336   4.568277   4.269633
    11  Si   3.337154   4.099591   4.822359   4.568830   4.809064
    12  O    1.744758   3.128133   3.246114   3.225044   4.260367
    13  O    4.439648   6.119779   5.772054   4.054926   1.741926
    14  O    4.457117   5.478686   5.398802   5.764387   4.956626
    15  H    4.700876   5.621975   5.322413   6.264168   5.619497
    16  O    3.882785   3.725893   5.351119   5.389211   6.397009
    17  O    6.135896   7.453401   7.393630   6.421941   4.012916
    18  O    6.222332   7.249148   7.977794   5.791877   4.236847
    19  H    3.534692   2.928465   5.111256   5.036936   6.680255
    20  H    5.963701   7.243350   7.066239   6.570077   4.375828
    21  H    6.094761   7.002662   7.967744   5.414285   4.405147
                    6          7          8          9         10
     6  Cl   0.000000
     7  Cl   3.563301   0.000000
     8  Cl   3.615848   3.563186   0.000000
     9  Si   4.620869   4.317569   4.758241   0.000000
    10  O    4.905287   5.636263   5.545599   1.656546   0.000000
    11  Si   4.687852   6.257519   6.273104   3.004620   1.633595
    12  O    3.650620   6.048525   5.488860   3.728635   2.664561
    13  O    3.212951   3.192900   3.220293   1.675420   2.639109
    14  O    4.693467   5.904409   6.817340   3.279872   2.576623
    15  H    5.026106   6.510618   7.518590   4.227221   3.471274
    16  O    6.135776   7.896853   7.697666   4.384300   2.796236
    17  O    5.074576   4.213459   5.774703   1.628405   2.735343
    18  O    5.901064   4.969724   5.050299   1.627485   2.736204
    19  H    6.358741   8.359561   7.758218   4.891785   3.251610
    20  H    5.021921   4.628150   6.299654   2.213582   2.804120
    21  H    6.100347   5.393630   4.820220   2.233703   2.998679
                   11         12         13         14         15
    11  Si   0.000000
    12  O    1.671838   0.000000
    13  O    3.532386   3.478355   0.000000
    14  O    1.642404   2.740182   3.861971   0.000000
    15  H    2.260979   3.107837   4.696756   0.954996   0.000000
    16  O    1.640297   2.651817   5.091160   2.697133   2.905797
    17  O    3.612951   4.585155   2.705877   3.094124   3.929274
    18  O    4.334791   5.075288   2.694833   4.783606   5.737111
    19  H    2.228073   2.717924   5.442201   3.524624   3.716272
    20  H    3.239103   4.310829   3.168853   2.350768   3.093850
    21  H    4.610564   5.167625   2.949355   5.332210   6.283212
                   16         17         18         19         20
    16  O    0.000000
    17  O    4.954731   0.000000
    18  O    5.455449   2.619810   0.000000
    19  H    0.956774   5.677699   5.859797   0.000000
    20  H    4.520985   0.962016   3.446198   5.327385   0.000000
    21  H    5.629953   3.502438   0.955935   5.885620   4.280976
                   21
    21  H    0.000000
 Symmetry turned off by external request.
 Stoichiometry    Cl6H4O7Si2Ti2
 Framework group  C1[X(Cl6H4O7Si2Ti2)]
 Deg. of freedom    57
 Full point group                 C1      NOp   1
 Rotational constants (GHZ):      0.0000026      0.0000012      0.0000008
 Leave Link  202 at Wed Aug 23 11:01:29 2017, MaxMem=    33554432 cpu:         0.3
 (Enter /sw/chem/g09/l301.exe)
 General basis read from cards:  (5D, 7F)
 Centers:       2      3      4      6      7      8      9     11     10     12
 Centers:      13     14     16     17     18     15     19     20     21
 TZVP
 ****
 Centers:       1      5
 S 8 1.00
     Exponent=  2.1157569025D+05 Coefficients=  2.3318151011D-04
     Exponent=  3.1714945058D+04 Coefficients=  1.8079690851D-03
     Exponent=  7.2175476543D+03 Coefficients=  9.3984311352D-03
     Exponent=  2.0429394247D+03 Coefficients=  3.8156853618D-02
     Exponent=  6.6512896208D+02 Coefficients=  1.2374757197D-01
     Exponent=  2.3874942264D+02 Coefficients=  2.9208551143D-01
     Exponent=  9.2508691001D+01 Coefficients=  4.1226800855D-01
     Exponent=  3.6403919209D+01 Coefficients=  2.1090534061D-01
 S 4 1.00
     Exponent=  2.3272624607D+02 Coefficients= -2.4920140738D-02
     Exponent=  7.1791209711D+01 Coefficients= -1.1746490087D-01
     Exponent=  1.1158534615D+01 Coefficients=  5.6503342318D-01
     Exponent=  4.6548135416D+00 Coefficients=  5.6211101812D-01
 S 2 1.00
     Exponent=  6.8034629174D+00 Coefficients= -2.3011425503D-01
     Exponent=  1.1201076403D+00 Coefficients=  7.2103186735D-01
 S 1 1.00
     Exponent=  4.8080118839D-01 Coefficients=  1.0000000000D+00
 S 1 1.00
     Exponent=  8.5157274977D-02 Coefficients=  1.0000000000D+00
 S 1 1.00
     Exponent=  3.2657477046D-02 Coefficients=  1.0000000000D+00
 P 6 1.00
     Exponent=  1.0631474732D+03 Coefficients=  2.4690839320D-03
     Exponent=  2.5156507061D+02 Coefficients=  1.9773345523D-02
     Exponent=  8.0408554854D+01 Coefficients=  9.0987976672D-02
     Exponent=  2.9768193269D+01 Coefficients=  2.5559900413D-01
     Exponent=  1.1736830556D+01 Coefficients=  4.0489386764D-01
     Exponent=  4.7142375230D+00 Coefficients=  2.3693402558D-01
 P 3 1.00
     Exponent=  1.7796803704D+01 Coefficients= -2.7878639615D-02
     Exponent=  2.4272698680D+00 Coefficients=  5.5672914668D-01
     Exponent=  9.6823445537D-01 Coefficients=  1.0055447350D+00
 P 1 1.00
     Exponent=  3.7056694165D-01 Coefficients=  1.0000000000D+00
 P 1 1.00
     Exponent=  1.0156100000D-01 Coefficients=  1.0000000000D+00
 D 4 1.00
     Exponent=  3.7713384723D+01 Coefficients=  1.1513835092D-02
     Exponent=  1.0692931184D+01 Coefficients=  6.7246343996D-02
     Exponent=  3.6728446990D+00 Coefficients=  2.1484207775D-01
     Exponent=  1.3588590303D+00 Coefficients=  3.8890892779D-01
 D 1 1.00
     Exponent=  4.9213295253D-01 Coefficients=  1.0000000000D+00
 D 1 1.00
     Exponent=  1.6330520653D-01 Coefficients=  1.0000000000D+00
 D 1 1.00
     Exponent=  5.4000000000D-02 Coefficients=  1.0000000000D+00
 F 1 1.00
     Exponent=  5.6200000000D-01 Coefficients=  1.0000000000D+00
 ****
 Ernie: Thresh=  0.10000D-02 Tol=  0.10000D-05 Strict=F.
   423 basis functions,   857 primitive gaussians,   452 cartesian basis functions
   117 alpha electrons      117 beta electrons
       nuclear repulsion energy      3506.9328804568 Hartrees.
 IExCor= 4639 DFT=T Ex+Corr=wB97XD ExCW=0 ScaHFX=  1.000000
 ScaDFX=  1.000000  1.000000  1.000000  1.000000 ScalE2=  1.000000  1.000000
 IRadAn= 199974 IRanWt=     -1 IRanGd=            0 ICorTp=0 IEmpDi=121
  HFx wShort=  0.000000 wLong=  0.200000 cFull=  0.222036 cShort=  0.000000 cLong=  0.777964
  DFx wShort=  0.000000 wLong=  0.200000 cFull=  0.000000 cShort=  0.000000 cLong=  1.000000
 NAtoms=   21 NActive=   21 NUniq=   21 SFac= 1.00D+00 NAtFMM=   60 NAOKFM=F Big=F
 Integral buffers will be    131072 words long.
 Raffenetti 2 integral format.
 Two-electron integral symmetry is turned off.
 R6Disp:  Grimme-D2 Dispersion energy=       -0.0183956430 Hartrees.
 Nuclear repulsion after empirical dispersion term =     3506.9144848138 Hartrees.
 Leave Link  301 at Wed Aug 23 11:01:30 2017, MaxMem=    33554432 cpu:         3.4
 (Enter /sw/chem/g09/l302.exe)
 NPDir=0 NMtPBC=     1 NCelOv=     1 NCel=       1 NClECP=     1 NCelD=      1
         NCelK=      1 NCelE2=     1 NClLst=     1 CellRange=     0.0.
 One-electron integrals computed using PRISM.
 PrsmSu:  requested number of processors reduced to:   4 ShMem   1 Linda.
 PrsmSu:  requested number of processors reduced to:  14 ShMem   1 Linda.
 NBasis=   423 RedAO= T EigKep=  1.23D-03  NBF=   423
 NBsUse=   423 1.00D-06 EigRej= -1.00D+00 NBFU=   423
 Precomputing XC quadrature grid using
 IXCGrd= 4 IRadAn=      199974 IRanWt=          -1 IRanGd=           0 AccXCQ= 0.00D+00.
 Generated NRdTot=       0 NPtTot=           0 NUsed=           0 NTot=          32
 NSgBfM=   428   428   429   429   429 MxSgAt=    21 MxSgA2=    21.
 Leave Link  302 at Wed Aug 23 11:01:31 2017, MaxMem=    33554432 cpu:        20.6
 (Enter /sw/chem/g09/l303.exe)
 DipDrv:  MaxL=1.
 Leave Link  303 at Wed Aug 23 11:01:31 2017, MaxMem=    33554432 cpu:         4.0
 (Enter /sw/chem/g09/l401.exe)
 ExpMin= 3.27D-02 ExpMax= 2.12D+05 ExpMxC= 2.37D+03 IAcc=4 IRadAn=    199974 AccDes= 0.00D+00
 Harris functional with IExCor= 4639 and IRadAn=  199974 diagonalized for initial guess.
 HarFok:  IExCor= 4639 AccDes= 0.00D+00 IRadAn=    199974 IDoV= 1 UseB2=F ITyADJ=14
 ICtDFT=  3500011 ScaDFX=  1.000000  1.000000  1.000000  1.000000
 CalDSu:  requested number of processors reduced to:  21 ShMem   1 Linda.
 FoFCou: FMM=F IPFlag=           0 FMFlag=      100000 FMFlg1=           0
         NFxFlg=           0 DoJE=T BraDBF=F KetDBF=T FulRan=T
         wScrn=  0.000000 ICntrl=     500 IOpCl=  0 I1Cent=   200000004 NGrid=           0
         NMat0=    1 NMatS0=      1 NMatT0=    0 NMatD0=    1 NMtDS0=    0 NMtDT0=    0
 Symmetry not used in FoFCou.
 CoulSu:  requested number of processors reduced to:  13 ShMem   1 Linda.
 CoulSu:  requested number of processors reduced to:  13 ShMem   1 Linda.
 CoulSu:  requested number of processors reduced to:  16 ShMem   1 Linda.
 CoulSu:  requested number of processors reduced to:  16 ShMem   1 Linda.
 Harris En= -5472.23746773665    
 JPrj=0 DoOrth=F DoCkMO=F.
 Leave Link  401 at Wed Aug 23 11:01:40 2017, MaxMem=    33554432 cpu:       174.8
 (Enter /sw/chem/g09/l502.exe)
 Closed shell SCF:
 Using DIIS extrapolation, IDIIS=  1040.
 Two-electron integral symmetry not used.
 IVT=      645064 IEndB=      645064 NGot=    33554432 MDV=    33130765
 LenX=    33130765 LenY=    32926009
 Requested convergence on RMS density matrix=1.00D-08 within 128 cycles.
 Requested convergence on MAX density matrix=1.00D-06.
 Requested convergence on             energy=1.00D-06.
 No special actions if energy rises.
 Fock matrices will be formed incrementally for  20 cycles.

 Cycle   1  Pass 1  IDiag  1:
 FoFJK:  IHMeth= 1 ICntrl=       0 DoSepK=T KAlg= 0 I1Cent=   0 FoldK=F
 IRaf=         1 NMat=   1 IRICut=       1 DoRegI=T DoRafI=F ISym2E= 0.
 FoFCou: FMM=F IPFlag=           0 FMFlag=      100000 FMFlg1=           0
         NFxFlg=           0 DoJE=T BraDBF=F KetDBF=F FulRan=T
         wScrn=  0.000000 ICntrl=     500 IOpCl=  0 I1Cent=           0 NGrid=           0
         NMat0=    1 NMatS0=      1 NMatT0=    0 NMatD0=    1 NMtDS0=    0 NMtDT0=    0
 Symmetry not used in FoFCou.
 CoulSu:  requested number of processors reduced to:  13 ShMem   1 Linda.
 CoulSu:  requested number of processors reduced to:  13 ShMem   1 Linda.
 CoulSu:  requested number of processors reduced to:  14 ShMem   1 Linda.
 CalDSu:  requested number of processors reduced to:  21 ShMem   1 Linda.
 E= -5567.77707480174    
 DIIS: error= 5.20D-02 at cycle   1 NSaved=   1.
 NSaved= 1 IEnMin= 1 EnMin= -5567.77707480174     IErMin= 1 ErrMin= 5.20D-02
 ErrMax= 5.20D-02  0.00D+00 EMaxC= 1.00D-01 BMatC= 4.67D+00 BMatP= 4.67D+00
 IDIUse=3 WtCom= 4.80D-01 WtEn= 5.20D-01
 Coeff-Com:  0.100D+01
 Coeff-En:   0.100D+01
 Coeff:      0.100D+01
 Gap=     0.533 Goal=   None    Shift=    0.000
 GapD=    0.533 DampG=2.000 DampE=0.250 DampFc=0.5000 IDamp=-1.
 Damping current iteration by 5.00D-01
 RMSDP=5.26D-03 MaxDP=2.65D-01              OVMax= 4.38D-01

 Cycle   2  Pass 1  IDiag  1:
 RMSU=  2.63D-03    CP:  1.00D+00
 CoulSu:  requested number of processors reduced to:  13 ShMem   1 Linda.
 CoulSu:  requested number of processors reduced to:  13 ShMem   1 Linda.
 CoulSu:  requested number of processors reduced to:  14 ShMem   1 Linda.
 CalDSu:  requested number of processors reduced to:  21 ShMem   1 Linda.
 E= -5566.21733956289     Delta-E=        1.559735238845 Rises=F Damp=T
 DIIS: error= 6.32D-02 at cycle   2 NSaved=   2.
 NSaved= 2 IEnMin= 1 EnMin= -5567.77707480174     IErMin= 1 ErrMin= 5.20D-02
 ErrMax= 6.32D-02  0.00D+00 EMaxC= 1.00D-01 BMatC= 2.63D+00 BMatP= 4.67D+00
 IDIUse=3 WtCom= 3.68D-01 WtEn= 6.32D-01
 Coeff-Com:  0.339D+00 0.661D+00
 Coeff-En:   0.757D+00 0.243D+00
 Coeff:      0.604D+00 0.396D+00
 Gap=     0.312 Goal=   None    Shift=    0.000
 RMSDP=2.24D-03 MaxDP=1.23D-01 DE= 1.56D+00 OVMax= 4.38D-01

 Cycle   3  Pass 1  IDiag  1:
 RMSU=  2.21D-03    CP:  1.01D+00  8.99D-01
 CoulSu:  requested number of processors reduced to:  13 ShMem   1 Linda.
 CoulSu:  requested number of processors reduced to:  13 ShMem   1 Linda.
 CoulSu:  requested number of processors reduced to:  14 ShMem   1 Linda.
 CalDSu:  requested number of processors reduced to:  21 ShMem   1 Linda.
 E= -5568.78825288031     Delta-E=       -2.570913317413 Rises=F Damp=F
 DIIS: error= 1.76D-02 at cycle   3 NSaved=   3.
 NSaved= 3 IEnMin= 3 EnMin= -5568.78825288031     IErMin= 3 ErrMin= 1.76D-02
 ErrMax= 1.76D-02  0.00D+00 EMaxC= 1.00D-01 BMatC= 4.62D-01 BMatP= 2.63D+00
 IDIUse=3 WtCom= 8.24D-01 WtEn= 1.76D-01
 Coeff-Com:  0.340D-01 0.263D+00 0.703D+00
 Coeff-En:   0.000D+00 0.547D-02 0.995D+00
 Coeff:      0.280D-01 0.218D+00 0.754D+00
 Gap=     0.279 Goal=   None    Shift=    0.000
 RMSDP=1.40D-03 MaxDP=8.15D-02 DE=-2.57D+00 OVMax= 1.03D-01

 Cycle   4  Pass 1  IDiag  1:
 RMSU=  8.58D-04    CP:  1.01D+00  9.07D-01  5.05D-01
 CoulSu:  requested number of processors reduced to:  13 ShMem   1 Linda.
 CoulSu:  requested number of processors reduced to:  13 ShMem   1 Linda.
 CoulSu:  requested number of processors reduced to:  14 ShMem   1 Linda.
 CalDSu:  requested number of processors reduced to:  21 ShMem   1 Linda.
 E= -5569.06076368163     Delta-E=       -0.272510801318 Rises=F Damp=F
 DIIS: error= 9.70D-03 at cycle   4 NSaved=   4.
 NSaved= 4 IEnMin= 4 EnMin= -5569.06076368163     IErMin= 4 ErrMin= 9.70D-03
 ErrMax= 9.70D-03  0.00D+00 EMaxC= 1.00D-01 BMatC= 6.90D-02 BMatP= 4.62D-01
 IDIUse=3 WtCom= 9.03D-01 WtEn= 9.70D-02
 Coeff-Com:  0.153D-01 0.343D-02 0.276D+00 0.705D+00
 Coeff-En:   0.000D+00 0.000D+00 0.147D+00 0.853D+00
 Coeff:      0.138D-01 0.310D-02 0.264D+00 0.720D+00
 Gap=     0.351 Goal=   None    Shift=    0.000
 RMSDP=5.40D-04 MaxDP=2.91D-02 DE=-2.73D-01 OVMax= 4.19D-02

 Cycle   5  Pass 1  IDiag  1:
 RMSU=  3.19D-04    CP:  1.01D+00  9.09D-01  6.64D-01  7.03D-01
 CoulSu:  requested number of processors reduced to:  13 ShMem   1 Linda.
 CoulSu:  requested number of processors reduced to:  13 ShMem   1 Linda.
 CoulSu:  requested number of processors reduced to:  14 ShMem   1 Linda.
 CalDSu:  requested number of processors reduced to:  21 ShMem   1 Linda.
 E= -5569.10897374626     Delta-E=       -0.048210064637 Rises=F Damp=F
 DIIS: error= 2.91D-03 at cycle   5 NSaved=   5.
 NSaved= 5 IEnMin= 5 EnMin= -5569.10897374626     IErMin= 5 ErrMin= 2.91D-03
 ErrMax= 2.91D-03  0.00D+00 EMaxC= 1.00D-01 BMatC= 8.00D-03 BMatP= 6.90D-02
 IDIUse=3 WtCom= 9.71D-01 WtEn= 2.91D-02
 Coeff-Com:  0.680D-02-0.572D-02 0.129D+00 0.418D+00 0.453D+00
 Coeff-En:   0.000D+00 0.000D+00 0.000D+00 0.500D-01 0.950D+00
 Coeff:      0.661D-02-0.556D-02 0.125D+00 0.407D+00 0.467D+00
 Gap=     0.336 Goal=   None    Shift=    0.000
 RMSDP=1.68D-04 MaxDP=7.62D-03 DE=-4.82D-02 OVMax= 1.55D-02

 Cycle   6  Pass 1  IDiag  1:
 RMSU=  7.64D-05    CP:  1.01D+00  9.18D-01  6.45D-01  8.12D-01  6.66D-01
 CoulSu:  requested number of processors reduced to:  13 ShMem   1 Linda.
 CoulSu:  requested number of processors reduced to:  13 ShMem   1 Linda.
 CoulSu:  requested number of processors reduced to:  14 ShMem   1 Linda.
 CalDSu:  requested number of processors reduced to:  21 ShMem   1 Linda.
 E= -5569.11563557951     Delta-E=       -0.006661833246 Rises=F Damp=F
 DIIS: error= 5.40D-04 at cycle   6 NSaved=   6.
 NSaved= 6 IEnMin= 6 EnMin= -5569.11563557951     IErMin= 6 ErrMin= 5.40D-04
 ErrMax= 5.40D-04  0.00D+00 EMaxC= 1.00D-01 BMatC= 4.66D-04 BMatP= 8.00D-03
 IDIUse=3 WtCom= 9.95D-01 WtEn= 5.40D-03
 Coeff-Com:  0.333D-02-0.779D-02 0.167D-01 0.828D-01 0.187D+00 0.718D+00
 Coeff-En:   0.000D+00 0.000D+00 0.000D+00 0.000D+00 0.000D+00 0.100D+01
 Coeff:      0.331D-02-0.775D-02 0.166D-01 0.824D-01 0.186D+00 0.719D+00
 Gap=     0.335 Goal=   None    Shift=    0.000
 RMSDP=3.67D-05 MaxDP=1.92D-03 DE=-6.66D-03 OVMax= 2.88D-03

 Cycle   7  Pass 1  IDiag  1:
 RMSU=  3.03D-05    CP:  1.01D+00  9.14D-01  6.48D-01  8.22D-01  7.09D-01
                    CP:  9.56D-01
 CoulSu:  requested number of processors reduced to:  13 ShMem   1 Linda.
 CoulSu:  requested number of processors reduced to:  13 ShMem   1 Linda.
 CoulSu:  requested number of processors reduced to:  14 ShMem   1 Linda.
 CalDSu:  requested number of processors reduced to:  21 ShMem   1 Linda.
 E= -5569.11600661867     Delta-E=       -0.000371039165 Rises=F Damp=F
 DIIS: error= 2.46D-04 at cycle   7 NSaved=   7.
 NSaved= 7 IEnMin= 7 EnMin= -5569.11600661867     IErMin= 7 ErrMin= 2.46D-04
 ErrMax= 2.46D-04  0.00D+00 EMaxC= 1.00D-01 BMatC= 4.44D-05 BMatP= 4.66D-04
 IDIUse=3 WtCom= 9.98D-01 WtEn= 2.46D-03
 Coeff-Com:  0.155D-02-0.346D-02-0.244D-02-0.659D-02 0.677D-02 0.165D+00
 Coeff-Com:  0.839D+00
 Coeff-En:   0.000D+00 0.000D+00 0.000D+00 0.000D+00 0.000D+00 0.000D+00
 Coeff-En:   0.100D+01
 Coeff:      0.154D-02-0.345D-02-0.244D-02-0.658D-02 0.675D-02 0.165D+00
 Coeff:      0.839D+00
 Gap=     0.336 Goal=   None    Shift=    0.000
 RMSDP=1.55D-05 MaxDP=5.01D-04 DE=-3.71D-04 OVMax= 1.33D-03

 Cycle   8  Pass 1  IDiag  1:
 RMSU=  9.04D-06    CP:  1.01D+00  9.13D-01  6.49D-01  8.30D-01  7.26D-01
                    CP:  1.06D+00  1.11D+00
 CoulSu:  requested number of processors reduced to:  14 ShMem   1 Linda.
 CoulSu:  requested number of processors reduced to:  13 ShMem   1 Linda.
 CoulSu:  requested number of processors reduced to:  14 ShMem   1 Linda.
 CalDSu:  requested number of processors reduced to:  21 ShMem   1 Linda.
 E= -5569.11605398102     Delta-E=       -0.000047362348 Rises=F Damp=F
 DIIS: error= 1.13D-04 at cycle   8 NSaved=   8.
 NSaved= 8 IEnMin= 8 EnMin= -5569.11605398102     IErMin= 8 ErrMin= 1.13D-04
 ErrMax= 1.13D-04  0.00D+00 EMaxC= 1.00D-01 BMatC= 8.92D-06 BMatP= 4.44D-05
 IDIUse=3 WtCom= 9.99D-01 WtEn= 1.13D-03
 Coeff-Com:  0.653D-03-0.142D-02-0.223D-02-0.991D-02-0.139D-01 0.655D-02
 Coeff-Com:  0.406D+00 0.615D+00
 Coeff-En:   0.000D+00 0.000D+00 0.000D+00 0.000D+00 0.000D+00 0.000D+00
 Coeff-En:   0.000D+00 0.100D+01
 Coeff:      0.652D-03-0.142D-02-0.222D-02-0.990D-02-0.139D-01 0.654D-02
 Coeff:      0.405D+00 0.615D+00
 Gap=     0.336 Goal=   None    Shift=    0.000
 RMSDP=6.90D-06 MaxDP=3.29D-04 DE=-4.74D-05 OVMax= 7.63D-04

 Cycle   9  Pass 1  IDiag  1:
 RMSU=  5.31D-06    CP:  1.01D+00  9.13D-01  6.50D-01  8.32D-01  7.30D-01
                    CP:  1.08D+00  1.21D+00  8.94D-01
 CoulSu:  requested number of processors reduced to:  14 ShMem   1 Linda.
 CoulSu:  requested number of processors reduced to:  13 ShMem   1 Linda.
 CoulSu:  requested number of processors reduced to:  14 ShMem   1 Linda.
 CalDSu:  requested number of processors reduced to:  21 ShMem   1 Linda.
 E= -5569.11606249799     Delta-E=       -0.000008516972 Rises=F Damp=F
 DIIS: error= 6.68D-05 at cycle   9 NSaved=   9.
 NSaved= 9 IEnMin= 9 EnMin= -5569.11606249799     IErMin= 9 ErrMin= 6.68D-05
 ErrMax= 6.68D-05  0.00D+00 EMaxC= 1.00D-01 BMatC= 3.77D-06 BMatP= 8.92D-06
 IDIUse=1 WtCom= 1.00D+00 WtEn= 0.00D+00
 Coeff-Com: -0.104D-04 0.957D-05-0.733D-03-0.464D-02-0.121D-01-0.547D-01
 Coeff-Com: -0.142D-03 0.469D+00 0.603D+00
 Coeff:     -0.104D-04 0.957D-05-0.733D-03-0.464D-02-0.121D-01-0.547D-01
 Coeff:     -0.142D-03 0.469D+00 0.603D+00
 Gap=     0.336 Goal=   None    Shift=    0.000
 RMSDP=4.42D-06 MaxDP=2.15D-04 DE=-8.52D-06 OVMax= 5.64D-04

 Cycle  10  Pass 1  IDiag  1:
 RMSU=  2.24D-06    CP:  1.01D+00  9.13D-01  6.50D-01  8.33D-01  7.31D-01
                    CP:  1.10D+00  1.27D+00  1.16D+00  7.84D-01
 CoulSu:  requested number of processors reduced to:  14 ShMem   1 Linda.
 CoulSu:  requested number of processors reduced to:  13 ShMem   1 Linda.
 CoulSu:  requested number of processors reduced to:  14 ShMem   1 Linda.
 CalDSu:  requested number of processors reduced to:  21 ShMem   1 Linda.
 E= -5569.11606698422     Delta-E=       -0.000004486223 Rises=F Damp=F
 DIIS: error= 2.52D-05 at cycle  10 NSaved=  10.
 NSaved=10 IEnMin=10 EnMin= -5569.11606698422     IErMin=10 ErrMin= 2.52D-05
 ErrMax= 2.52D-05  0.00D+00 EMaxC= 1.00D-01 BMatC= 3.82D-07 BMatP= 3.77D-06
 IDIUse=1 WtCom= 1.00D+00 WtEn= 0.00D+00
 Coeff-Com: -0.150D-03 0.278D-03-0.249D-03-0.996D-03-0.372D-02-0.276D-01
 Coeff-Com: -0.668D-01 0.128D+00 0.298D+00 0.673D+00
 Coeff:     -0.150D-03 0.278D-03-0.249D-03-0.996D-03-0.372D-02-0.276D-01
 Coeff:     -0.668D-01 0.128D+00 0.298D+00 0.673D+00
 Gap=     0.336 Goal=   None    Shift=    0.000
 RMSDP=1.60D-06 MaxDP=8.51D-05 DE=-4.49D-06 OVMax= 2.13D-04

 Cycle  11  Pass 1  IDiag  1:
 RMSU=  8.75D-07    CP:  1.01D+00  9.13D-01  6.50D-01  8.34D-01  7.31D-01
                    CP:  1.10D+00  1.29D+00  1.22D+00  9.37D-01  1.07D+00
 CoulSu:  requested number of processors reduced to:  14 ShMem   1 Linda.
 CoulSu:  requested number of processors reduced to:  13 ShMem   1 Linda.
 CoulSu:  requested number of processors reduced to:  14 ShMem   1 Linda.
 CalDSu:  requested number of processors reduced to:  21 ShMem   1 Linda.
 E= -5569.11606753778     Delta-E=       -0.000000553566 Rises=F Damp=F
 DIIS: error= 1.11D-05 at cycle  11 NSaved=  11.
 NSaved=11 IEnMin=11 EnMin= -5569.11606753778     IErMin=11 ErrMin= 1.11D-05
 ErrMax= 1.11D-05  0.00D+00 EMaxC= 1.00D-01 BMatC= 7.40D-08 BMatP= 3.82D-07
 IDIUse=1 WtCom= 1.00D+00 WtEn= 0.00D+00
 Coeff-Com: -0.846D-04 0.138D-03-0.125D-03 0.425D-03 0.116D-02 0.202D-02
 Coeff-Com: -0.190D-01-0.574D-01-0.349D-01 0.221D+00 0.887D+00
 Coeff:     -0.846D-04 0.138D-03-0.125D-03 0.425D-03 0.116D-02 0.202D-02
 Coeff:     -0.190D-01-0.574D-01-0.349D-01 0.221D+00 0.887D+00
 Gap=     0.336 Goal=   None    Shift=    0.000
 RMSDP=8.43D-07 MaxDP=2.92D-05 DE=-5.54D-07 OVMax= 1.04D-04

 Cycle  12  Pass 1  IDiag  1:
 RMSU=  3.45D-07    CP:  1.01D+00  9.13D-01  6.50D-01  8.34D-01  7.32D-01
                    CP:  1.10D+00  1.29D+00  1.26D+00  9.98D-01  1.29D+00
                    CP:  1.18D+00
 CoulSu:  requested number of processors reduced to:  14 ShMem   1 Linda.
 CoulSu:  requested number of processors reduced to:  13 ShMem   1 Linda.
 CoulSu:  requested number of processors reduced to:  14 ShMem   1 Linda.
 CalDSu:  requested number of processors reduced to:  21 ShMem   1 Linda.
 E= -5569.11606766744     Delta-E=       -0.000000129654 Rises=F Damp=F
 DIIS: error= 2.80D-06 at cycle  12 NSaved=  12.
 NSaved=12 IEnMin=12 EnMin= -5569.11606766744     IErMin=12 ErrMin= 2.80D-06
 ErrMax= 2.80D-06  0.00D+00 EMaxC= 1.00D-01 BMatC= 5.88D-09 BMatP= 7.40D-08
 IDIUse=1 WtCom= 1.00D+00 WtEn= 0.00D+00
 Coeff-Com: -0.105D-04 0.175D-04-0.414D-04 0.961D-04 0.537D-03 0.343D-02
 Coeff-Com:  0.489D-02-0.267D-01-0.449D-01-0.414D-01 0.205D+00 0.899D+00
 Coeff:     -0.105D-04 0.175D-04-0.414D-04 0.961D-04 0.537D-03 0.343D-02
 Coeff:      0.489D-02-0.267D-01-0.449D-01-0.414D-01 0.205D+00 0.899D+00
 Gap=     0.336 Goal=   None    Shift=    0.000
 RMSDP=2.81D-07 MaxDP=7.48D-06 DE=-1.30D-07 OVMax= 3.44D-05

 Cycle  13  Pass 1  IDiag  1:
 RMSU=  1.23D-07    CP:  1.01D+00  9.13D-01  6.50D-01  8.34D-01  7.32D-01
                    CP:  1.11D+00  1.29D+00  1.27D+00  1.01D+00  1.36D+00
                    CP:  1.33D+00  1.08D+00
 CoulSu:  requested number of processors reduced to:  14 ShMem   1 Linda.
 CoulSu:  requested number of processors reduced to:  13 ShMem   1 Linda.
 CoulSu:  requested number of processors reduced to:  14 ShMem   1 Linda.
 CalDSu:  requested number of processors reduced to:  21 ShMem   1 Linda.
 E= -5569.11606767877     Delta-E=       -0.000000011332 Rises=F Damp=F
 DIIS: error= 7.70D-07 at cycle  13 NSaved=  13.
 NSaved=13 IEnMin=13 EnMin= -5569.11606767877     IErMin=13 ErrMin= 7.70D-07
 ErrMax= 7.70D-07  0.00D+00 EMaxC= 1.00D-01 BMatC= 9.70D-10 BMatP= 5.88D-09
 IDIUse=1 WtCom= 1.00D+00 WtEn= 0.00D+00
 Coeff-Com:  0.346D-05-0.378D-05 0.475D-06-0.138D-04 0.598D-04 0.106D-02
 Coeff-Com:  0.371D-02-0.446D-02-0.137D-01-0.405D-01-0.831D-02 0.394D+00
 Coeff-Com:  0.668D+00
 Coeff:      0.346D-05-0.378D-05 0.475D-06-0.138D-04 0.598D-04 0.106D-02
 Coeff:      0.371D-02-0.446D-02-0.137D-01-0.405D-01-0.831D-02 0.394D+00
 Coeff:      0.668D+00
 Gap=     0.336 Goal=   None    Shift=    0.000
 RMSDP=7.25D-08 MaxDP=2.18D-06 DE=-1.13D-08 OVMax= 7.59D-06

 Cycle  14  Pass 1  IDiag  1:
 RMSU=  4.81D-08    CP:  1.01D+00  9.13D-01  6.50D-01  8.34D-01  7.32D-01
                    CP:  1.11D+00  1.29D+00  1.27D+00  1.02D+00  1.37D+00
                    CP:  1.37D+00  1.17D+00  9.78D-01
 CoulSu:  requested number of processors reduced to:  14 ShMem   1 Linda.
 CoulSu:  requested number of processors reduced to:  13 ShMem   1 Linda.
 CoulSu:  requested number of processors reduced to:  14 ShMem   1 Linda.
 CalDSu:  requested number of processors reduced to:  21 ShMem   1 Linda.
 E= -5569.11606767993     Delta-E=       -0.000000001157 Rises=F Damp=F
 DIIS: error= 3.32D-07 at cycle  14 NSaved=  14.
 NSaved=14 IEnMin=14 EnMin= -5569.11606767993     IErMin=14 ErrMin= 3.32D-07
 ErrMax= 3.32D-07  0.00D+00 EMaxC= 1.00D-01 BMatC= 1.12D-10 BMatP= 9.70D-10
 IDIUse=1 WtCom= 1.00D+00 WtEn= 0.00D+00
 Coeff-Com:  0.301D-05-0.382D-05 0.115D-04-0.382D-05-0.354D-04-0.175D-04
 Coeff-Com:  0.361D-03 0.152D-02 0.793D-03-0.798D-02-0.261D-01 0.248D-01
 Coeff-Com:  0.213D+00 0.793D+00
 Coeff:      0.301D-05-0.382D-05 0.115D-04-0.382D-05-0.354D-04-0.175D-04
 Coeff:      0.361D-03 0.152D-02 0.793D-03-0.798D-02-0.261D-01 0.248D-01
 Coeff:      0.213D+00 0.793D+00
 Gap=     0.336 Goal=   None    Shift=    0.000
 RMSDP=2.98D-08 MaxDP=8.59D-07 DE=-1.16D-09 OVMax= 3.76D-06

 Cycle  15  Pass 1  IDiag  1:
 RMSU=  1.78D-08    CP:  1.01D+00  9.13D-01  6.50D-01  8.34D-01  7.32D-01
                    CP:  1.11D+00  1.29D+00  1.27D+00  1.02D+00  1.37D+00
                    CP:  1.38D+00  1.21D+00  1.09D+00  1.13D+00
 CoulSu:  requested number of processors reduced to:  14 ShMem   1 Linda.
 CoulSu:  requested number of processors reduced to:  14 ShMem   1 Linda.
 CoulSu:  requested number of processors reduced to:  14 ShMem   1 Linda.
 CalDSu:  requested number of processors reduced to:  21 ShMem   1 Linda.
 E= -5569.11606768010     Delta-E=       -0.000000000171 Rises=F Damp=F
 DIIS: error= 1.73D-07 at cycle  15 NSaved=  15.
 NSaved=15 IEnMin=15 EnMin= -5569.11606768010     IErMin=15 ErrMin= 1.73D-07
 ErrMax= 1.73D-07  0.00D+00 EMaxC= 1.00D-01 BMatC= 2.51D-11 BMatP= 1.12D-10
 IDIUse=1 WtCom= 1.00D+00 WtEn= 0.00D+00
 Coeff-Com:  0.992D-06-0.140D-05 0.680D-05 0.622D-05-0.206D-04-0.152D-03
 Coeff-Com: -0.535D-03 0.113D-02 0.247D-02 0.364D-02-0.743D-02-0.556D-01
 Coeff-Com: -0.349D-01 0.309D+00 0.783D+00
 Coeff:      0.992D-06-0.140D-05 0.680D-05 0.622D-05-0.206D-04-0.152D-03
 Coeff:     -0.535D-03 0.113D-02 0.247D-02 0.364D-02-0.743D-02-0.556D-01
 Coeff:     -0.349D-01 0.309D+00 0.783D+00
 Gap=     0.336 Goal=   None    Shift=    0.000
 RMSDP=1.46D-08 MaxDP=4.40D-07 DE=-1.71D-10 OVMax= 1.82D-06

 Cycle  16  Pass 1  IDiag  1:
 RMSU=  7.56D-09    CP:  1.01D+00  9.13D-01  6.50D-01  8.34D-01  7.32D-01
                    CP:  1.11D+00  1.29D+00  1.27D+00  1.02D+00  1.37D+00
                    CP:  1.38D+00  1.21D+00  1.15D+00  1.30D+00  9.88D-01
 CoulSu:  requested number of processors reduced to:  14 ShMem   1 Linda.
 CoulSu:  requested number of processors reduced to:  14 ShMem   1 Linda.
 CoulSu:  requested number of processors reduced to:  14 ShMem   1 Linda.
 CalDSu:  requested number of processors reduced to:  21 ShMem   1 Linda.
 E= -5569.11606768012     Delta-E=       -0.000000000025 Rises=F Damp=F
 DIIS: error= 6.33D-08 at cycle  16 NSaved=  16.
 NSaved=16 IEnMin=16 EnMin= -5569.11606768012     IErMin=16 ErrMin= 6.33D-08
 ErrMax= 6.33D-08  0.00D+00 EMaxC= 1.00D-01 BMatC= 4.03D-12 BMatP= 2.51D-11
 IDIUse=1 WtCom= 1.00D+00 WtEn= 0.00D+00
 Coeff-Com:  0.771D-07-0.159D-06 0.148D-05 0.345D-05-0.538D-05-0.584D-04
 Coeff-Com: -0.275D-03 0.236D-03 0.876D-03 0.275D-02 0.102D-02-0.279D-01
 Coeff-Com: -0.475D-01 0.384D-02 0.335D+00 0.732D+00
 Coeff:      0.771D-07-0.159D-06 0.148D-05 0.345D-05-0.538D-05-0.584D-04
 Coeff:     -0.275D-03 0.236D-03 0.876D-03 0.275D-02 0.102D-02-0.279D-01
 Coeff:     -0.475D-01 0.384D-02 0.335D+00 0.732D+00
 Gap=     0.336 Goal=   None    Shift=    0.000
 RMSDP=5.91D-09 MaxDP=1.96D-07 DE=-2.55D-11 OVMax= 7.15D-07

 SCF Done:  E(RwB97XD) =  -5569.11606768     A.U. after   16 cycles
            NFock= 16  Conv=0.59D-08     -V/T= 2.0023
 KE= 5.556269815837D+03 PE=-2.022791580335D+04 EE= 5.595615435023D+03
 Leave Link  502 at Wed Aug 23 11:07:18 2017, MaxMem=    33554432 cpu:      6036.0
 (Enter /sw/chem/g09/l801.exe)
 DoSCS=F DFT=T ScalE2(SS,OS)=  1.000000  1.000000
 Range of M.O.s used for correlation:     1   423
 NBasis=   423 NAE=   117 NBE=   117 NFC=     0 NFV=     0
 NROrb=    423 NOA=   117 NOB=   117 NVA=   306 NVB=   306
 Leave Link  801 at Wed Aug 23 11:07:19 2017, MaxMem=    33554432 cpu:         1.0
 (Enter /sw/chem/g09/l1101.exe)
 Using compressed storage, NAtomX=    21.
 Will process     22 centers per pass.
 PrsmSu:  requested number of processors reduced to:   3 ShMem   1 Linda.
 PrsmSu:  requested number of processors reduced to:   3 ShMem   1 Linda.
 R6Disp: Adding Grimme-D2 dispersion energy 1st derivatives to the gradient.
 Leave Link 1101 at Wed Aug 23 11:07:20 2017, MaxMem=    33554432 cpu:        14.5
 (Enter /sw/chem/g09/l1102.exe)
 Symmetrizing basis deriv contribution to polar:
 IMax=3 JMax=2 DiffMx= 0.00D+00
 Leave Link 1102 at Wed Aug 23 11:07:20 2017, MaxMem=    33554432 cpu:         4.0
 (Enter /sw/chem/g09/l1110.exe)
 Forming Gx(P) for the SCF density, NAtomX=    21.
 Integral derivatives from FoFJK, PRISM(SPDF).
 Do as many integral derivatives as possible in FoFJK.
 G2DrvN: MDV=      33554160.
 G2DrvN: will do     1 centers at a time, making   22 passes.
 Estimated number of processors is:    7
 G2DrvN:  IPasSy=1 do centers    0 through    0.
 Calling FoFCou, ICntrl=  3107 FMM=F I1Cent=   0 AccDes= 0.00D+00.
 FoFJK:  IHMeth= 1 ICntrl=    3107 DoSepK=T KAlg= 0 I1Cent=   0 FoldK=F
 IRaf=         1 NMat=   1 IRICut=       1 DoRegI=T DoRafI=F ISym2E= 0.
 FoFCou: FMM=F IPFlag=           0 FMFlag=      100000 FMFlg1=           0
         NFxFlg=           0 DoJE=F BraDBF=F KetDBF=F FulRan=T
         wScrn=  0.000000 ICntrl=    3507 IOpCl=  0 I1Cent=           0 NGrid=           0
         NMat0=    1 NMatS0=      1 NMatT0=    0 NMatD0=    1 NMtDS0=    0 NMtDT0=    0
 Symmetry not used in FoFCou.
 CoulSu:  requested number of processors reduced to:   7 ShMem   1 Linda.
 CoulSu:  requested number of processors reduced to:   7 ShMem   1 Linda.
 CalDSu:  requested number of processors reduced to:  14 ShMem   1 Linda.
 G2DrvN:  IPasSy=1 do centers    1 through    1.
 Calling FoFCou, ICntrl=  3107 FMM=F I1Cent=   0 AccDes= 0.00D+00.
 CoulSu:  requested number of processors reduced to:   7 ShMem   1 Linda.
 CoulSu:  requested number of processors reduced to:   7 ShMem   1 Linda.
 CalDSu:  requested number of processors reduced to:  14 ShMem   1 Linda.
 G2DrvN:  IPasSy=1 do centers    2 through    2.
 Calling FoFCou, ICntrl=  3107 FMM=F I1Cent=   0 AccDes= 0.00D+00.
 CoulSu:  requested number of processors reduced to:   7 ShMem   1 Linda.
 CoulSu:  requested number of processors reduced to:   7 ShMem   1 Linda.
 CalDSu:  requested number of processors reduced to:  14 ShMem   1 Linda.
 G2DrvN:  IPasSy=1 do centers    3 through    3.
 Calling FoFCou, ICntrl=  3107 FMM=F I1Cent=   0 AccDes= 0.00D+00.
 CoulSu:  requested number of processors reduced to:   7 ShMem   1 Linda.
 CoulSu:  requested number of processors reduced to:   7 ShMem   1 Linda.
 CalDSu:  requested number of processors reduced to:  14 ShMem   1 Linda.
 G2DrvN:  IPasSy=1 do centers    4 through    4.
 Calling FoFCou, ICntrl=  3107 FMM=F I1Cent=   0 AccDes= 0.00D+00.
 CoulSu:  requested number of processors reduced to:   7 ShMem   1 Linda.
 CoulSu:  requested number of processors reduced to:   7 ShMem   1 Linda.
 CalDSu:  requested number of processors reduced to:  14 ShMem   1 Linda.
 G2DrvN:  IPasSy=1 do centers    5 through    5.
 Calling FoFCou, ICntrl=  3107 FMM=F I1Cent=   0 AccDes= 0.00D+00.
 CoulSu:  requested number of processors reduced to:   7 ShMem   1 Linda.
 CoulSu:  requested number of processors reduced to:   7 ShMem   1 Linda.
 CalDSu:  requested number of processors reduced to:  14 ShMem   1 Linda.
 G2DrvN:  IPasSy=1 do centers    6 through    6.
 Calling FoFCou, ICntrl=  3107 FMM=F I1Cent=   0 AccDes= 0.00D+00.
 CoulSu:  requested number of processors reduced to:   7 ShMem   1 Linda.
 CoulSu:  requested number of processors reduced to:   7 ShMem   1 Linda.
 CalDSu:  requested number of processors reduced to:  14 ShMem   1 Linda.
 G2DrvN:  IPasSy=1 do centers    7 through    7.
 Calling FoFCou, ICntrl=  3107 FMM=F I1Cent=   0 AccDes= 0.00D+00.
 CoulSu:  requested number of processors reduced to:   7 ShMem   1 Linda.
 CoulSu:  requested number of processors reduced to:   7 ShMem   1 Linda.
 CalDSu:  requested number of processors reduced to:  14 ShMem   1 Linda.
 G2DrvN:  IPasSy=1 do centers    8 through    8.
 Calling FoFCou, ICntrl=  3107 FMM=F I1Cent=   0 AccDes= 0.00D+00.
 CoulSu:  requested number of processors reduced to:   7 ShMem   1 Linda.
 CoulSu:  requested number of processors reduced to:   7 ShMem   1 Linda.
 CalDSu:  requested number of processors reduced to:  14 ShMem   1 Linda.
 G2DrvN:  IPasSy=1 do centers    9 through    9.
 Calling FoFCou, ICntrl=  3107 FMM=F I1Cent=   0 AccDes= 0.00D+00.
 CoulSu:  requested number of processors reduced to:   7 ShMem   1 Linda.
 CoulSu:  requested number of processors reduced to:   7 ShMem   1 Linda.
 CalDSu:  requested number of processors reduced to:  14 ShMem   1 Linda.
 G2DrvN:  IPasSy=1 do centers   10 through   10.
 Calling FoFCou, ICntrl=  3107 FMM=F I1Cent=   0 AccDes= 0.00D+00.
 CoulSu:  requested number of processors reduced to:   7 ShMem   1 Linda.
 CoulSu:  requested number of processors reduced to:   7 ShMem   1 Linda.
 CalDSu:  requested number of processors reduced to:  14 ShMem   1 Linda.
 G2DrvN:  IPasSy=1 do centers   11 through   11.
 Calling FoFCou, ICntrl=  3107 FMM=F I1Cent=   0 AccDes= 0.00D+00.
 CoulSu:  requested number of processors reduced to:   7 ShMem   1 Linda.
 CoulSu:  requested number of processors reduced to:   7 ShMem   1 Linda.
 CalDSu:  requested number of processors reduced to:  14 ShMem   1 Linda.
 G2DrvN:  IPasSy=1 do centers   12 through   12.
 Calling FoFCou, ICntrl=  3107 FMM=F I1Cent=   0 AccDes= 0.00D+00.
 CoulSu:  requested number of processors reduced to:   7 ShMem   1 Linda.
 CoulSu:  requested number of processors reduced to:   7 ShMem   1 Linda.
 CalDSu:  requested number of processors reduced to:  14 ShMem   1 Linda.
 G2DrvN:  IPasSy=1 do centers   13 through   13.
 Calling FoFCou, ICntrl=  3107 FMM=F I1Cent=   0 AccDes= 0.00D+00.
 CoulSu:  requested number of processors reduced to:   7 ShMem   1 Linda.
 CoulSu:  requested number of processors reduced to:   7 ShMem   1 Linda.
 CalDSu:  requested number of processors reduced to:  14 ShMem   1 Linda.
 G2DrvN:  IPasSy=1 do centers   14 through   14.
 Calling FoFCou, ICntrl=  3107 FMM=F I1Cent=   0 AccDes= 0.00D+00.
 CoulSu:  requested number of processors reduced to:   7 ShMem   1 Linda.
 CoulSu:  requested number of processors reduced to:   7 ShMem   1 Linda.
 CalDSu:  requested number of processors reduced to:  14 ShMem   1 Linda.
 G2DrvN:  IPasSy=1 do centers   15 through   15.
 Calling FoFCou, ICntrl=  3107 FMM=F I1Cent=   0 AccDes= 0.00D+00.
 CoulSu:  requested number of processors reduced to:   7 ShMem   1 Linda.
 CoulSu:  requested number of processors reduced to:   7 ShMem   1 Linda.
 CalDSu:  requested number of processors reduced to:  14 ShMem   1 Linda.
 G2DrvN:  IPasSy=1 do centers   16 through   16.
 Calling FoFCou, ICntrl=  3107 FMM=F I1Cent=   0 AccDes= 0.00D+00.
 CoulSu:  requested number of processors reduced to:   7 ShMem   1 Linda.
 CoulSu:  requested number of processors reduced to:   7 ShMem   1 Linda.
 CalDSu:  requested number of processors reduced to:  14 ShMem   1 Linda.
 G2DrvN:  IPasSy=1 do centers   17 through   17.
 Calling FoFCou, ICntrl=  3107 FMM=F I1Cent=   0 AccDes= 0.00D+00.
 CoulSu:  requested number of processors reduced to:   7 ShMem   1 Linda.
 CoulSu:  requested number of processors reduced to:   7 ShMem   1 Linda.
 CalDSu:  requested number of processors reduced to:  14 ShMem   1 Linda.
 G2DrvN:  IPasSy=1 do centers   18 through   18.
 Calling FoFCou, ICntrl=  3107 FMM=F I1Cent=   0 AccDes= 0.00D+00.
 CoulSu:  requested number of processors reduced to:   7 ShMem   1 Linda.
 CoulSu:  requested number of processors reduced to:   7 ShMem   1 Linda.
 CalDSu:  requested number of processors reduced to:  14 ShMem   1 Linda.
 G2DrvN:  IPasSy=1 do centers   19 through   19.
 Calling FoFCou, ICntrl=  3107 FMM=F I1Cent=   0 AccDes= 0.00D+00.
 CoulSu:  requested number of processors reduced to:   7 ShMem   1 Linda.
 CoulSu:  requested number of processors reduced to:   7 ShMem   1 Linda.
 CalDSu:  requested number of processors reduced to:  14 ShMem   1 Linda.
 G2DrvN:  IPasSy=1 do centers   20 through   20.
 Calling FoFCou, ICntrl=  3107 FMM=F I1Cent=   0 AccDes= 0.00D+00.
 CoulSu:  requested number of processors reduced to:   7 ShMem   1 Linda.
 CoulSu:  requested number of processors reduced to:   7 ShMem   1 Linda.
 CalDSu:  requested number of processors reduced to:  14 ShMem   1 Linda.
 G2DrvN:  IPasSy=1 do centers   21 through   21.
 Calling FoFCou, ICntrl=  3107 FMM=F I1Cent=   0 AccDes= 0.00D+00.
 CoulSu:  requested number of processors reduced to:   7 ShMem   1 Linda.
 CoulSu:  requested number of processors reduced to:   7 ShMem   1 Linda.
 CalDSu:  requested number of processors reduced to:  14 ShMem   1 Linda.
 End of G2Drv F.D. properties file   721 does not exist.
 End of G2Drv F.D. properties file   722 does not exist.
 End of G2Drv F.D. properties file   788 does not exist.
 Leave Link 1110 at Wed Aug 23 11:47:00 2017, MaxMem=    33554432 cpu:     30409.9
 (Enter /sw/chem/g09/l1002.exe)
 Minotr:  Closed shell wavefunction.
          IDoAtm=111111111111111111111
          Direct CPHF calculation.
          Differentiating once with respect to electric field.
                with respect to dipole field.
          Differentiating once with respect to nuclear coordinates.
          Requested convergence is 1.0D-08 RMS, and 1.0D-07 maximum.
          Secondary convergence is 1.0D-12 RMS, and 1.0D-12 maximum.
          NewPWx=T KeepS1=F KeepF1=F KeepIn=T MapXYZ=F SortEE=F KeepMc=T.
          MDV=      33553795 using IRadAn=   99302.
 Generate precomputed XC quadrature information.
          Solving linear equations simultaneously, MaxMat=       0.
 Estimated number of processors is:   14
 FoF2E skips out because all densities are zero.
 CalDSu exits because no D1Ps are significant.
 FoF2E skips out because all densities are zero.
 CalDSu exits because no D1Ps are significant.
 FoF2E skips out because all densities are zero.
 CalDSu exits because no D1Ps are significant.
 FoFJK:  IHMeth= 1 ICntrl=       0 DoSepK=T KAlg= 0 I1Cent=   0 FoldK=F
 IRaf=         1 NMat=   1 IRICut=       1 DoRegI=T DoRafI=F ISym2E= 0.
 FoFCou: FMM=F IPFlag=           0 FMFlag=      100000 FMFlg1=           0
         NFxFlg=           0 DoJE=T BraDBF=F KetDBF=F FulRan=T
         wScrn=  0.000000 ICntrl=     500 IOpCl=  0 I1Cent=           0 NGrid=           0
         NMat0=    1 NMatS0=      1 NMatT0=    0 NMatD0=    1 NMtDS0=    0 NMtDT0=    0
 Symmetry not used in FoFCou.
 CoulSu:  requested number of processors reduced to:  13 ShMem   1 Linda.
 CoulSu:  requested number of processors reduced to:  13 ShMem   1 Linda.
 CoulSu:  requested number of processors reduced to:  14 ShMem   1 Linda.
 CalDSu:  requested number of processors reduced to:  21 ShMem   1 Linda.
 CoulSu:  requested number of processors reduced to:  13 ShMem   1 Linda.
 CoulSu:  requested number of processors reduced to:  13 ShMem   1 Linda.
 CoulSu:  requested number of processors reduced to:  14 ShMem   1 Linda.
 CalDSu:  requested number of processors reduced to:  21 ShMem   1 Linda.
 CoulSu:  requested number of processors reduced to:  13 ShMem   1 Linda.
 CoulSu:  requested number of processors reduced to:  13 ShMem   1 Linda.
 CoulSu:  requested number of processors reduced to:  14 ShMem   1 Linda.
 CalDSu:  requested number of processors reduced to:  21 ShMem   1 Linda.
 CoulSu:  requested number of processors reduced to:  13 ShMem   1 Linda.
 CoulSu:  requested number of processors reduced to:  13 ShMem   1 Linda.
 CoulSu:  requested number of processors reduced to:  14 ShMem   1 Linda.
 CalDSu:  requested number of processors reduced to:  21 ShMem   1 Linda.
 CoulSu:  requested number of processors reduced to:  13 ShMem   1 Linda.
 CoulSu:  requested number of processors reduced to:  13 ShMem   1 Linda.
 CoulSu:  requested number of processors reduced to:  14 ShMem   1 Linda.
 CalDSu:  requested number of processors reduced to:  21 ShMem   1 Linda.
 CoulSu:  requested number of processors reduced to:  13 ShMem   1 Linda.
 CoulSu:  requested number of processors reduced to:  13 ShMem   1 Linda.
 CoulSu:  requested number of processors reduced to:  14 ShMem   1 Linda.
 CalDSu:  requested number of processors reduced to:  21 ShMem   1 Linda.
 CoulSu:  requested number of processors reduced to:  13 ShMem   1 Linda.
 CoulSu:  requested number of processors reduced to:  13 ShMem   1 Linda.
 CoulSu:  requested number of processors reduced to:  14 ShMem   1 Linda.
 CalDSu:  requested number of processors reduced to:  21 ShMem   1 Linda.
 CoulSu:  requested number of processors reduced to:  13 ShMem   1 Linda.
 CoulSu:  requested number of processors reduced to:  13 ShMem   1 Linda.
 CoulSu:  requested number of processors reduced to:  14 ShMem   1 Linda.
 CalDSu:  requested number of processors reduced to:  21 ShMem   1 Linda.
 CoulSu:  requested number of processors reduced to:  13 ShMem   1 Linda.
 CoulSu:  requested number of processors reduced to:  13 ShMem   1 Linda.
 CoulSu:  requested number of processors reduced to:  14 ShMem   1 Linda.
 CalDSu:  requested number of processors reduced to:  21 ShMem   1 Linda.
 CoulSu:  requested number of processors reduced to:  13 ShMem   1 Linda.
 CoulSu:  requested number of processors reduced to:  13 ShMem   1 Linda.
 CoulSu:  requested number of processors reduced to:  14 ShMem   1 Linda.
 CalDSu:  requested number of processors reduced to:  21 ShMem   1 Linda.
 CoulSu:  requested number of processors reduced to:  13 ShMem   1 Linda.
 CoulSu:  requested number of processors reduced to:  13 ShMem   1 Linda.
 CoulSu:  requested number of processors reduced to:  14 ShMem   1 Linda.
 CalDSu:  requested number of processors reduced to:  21 ShMem   1 Linda.
 CoulSu:  requested number of processors reduced to:  13 ShMem   1 Linda.
 CoulSu:  requested number of processors reduced to:  13 ShMem   1 Linda.
 CoulSu:  requested number of processors reduced to:  14 ShMem   1 Linda.
 CalDSu:  requested number of processors reduced to:  21 ShMem   1 Linda.
 CoulSu:  requested number of processors reduced to:  13 ShMem   1 Linda.
 CoulSu:  requested number of processors reduced to:  13 ShMem   1 Linda.
 CoulSu:  requested number of processors reduced to:  14 ShMem   1 Linda.
 CalDSu:  requested number of processors reduced to:  21 ShMem   1 Linda.
 CoulSu:  requested number of processors reduced to:  13 ShMem   1 Linda.
 CoulSu:  requested number of processors reduced to:  13 ShMem   1 Linda.
 CoulSu:  requested number of processors reduced to:  14 ShMem   1 Linda.
 CalDSu:  requested number of processors reduced to:  21 ShMem   1 Linda.
 CoulSu:  requested number of processors reduced to:  13 ShMem   1 Linda.
 CoulSu:  requested number of processors reduced to:  13 ShMem   1 Linda.
 CoulSu:  requested number of processors reduced to:  14 ShMem   1 Linda.
 CalDSu:  requested number of processors reduced to:  21 ShMem   1 Linda.
 CoulSu:  requested number of processors reduced to:  13 ShMem   1 Linda.
 CoulSu:  requested number of processors reduced to:  13 ShMem   1 Linda.
 CoulSu:  requested number of processors reduced to:  14 ShMem   1 Linda.
 CalDSu:  requested number of processors reduced to:  21 ShMem   1 Linda.
 CoulSu:  requested number of processors reduced to:  13 ShMem   1 Linda.
 CoulSu:  requested number of processors reduced to:  13 ShMem   1 Linda.
 CoulSu:  requested number of processors reduced to:  14 ShMem   1 Linda.
 CalDSu:  requested number of processors reduced to:  21 ShMem   1 Linda.
 CoulSu:  requested number of processors reduced to:  13 ShMem   1 Linda.
 CoulSu:  requested number of processors reduced to:  13 ShMem   1 Linda.
 CoulSu:  requested number of processors reduced to:  14 ShMem   1 Linda.
 CalDSu:  requested number of processors reduced to:  21 ShMem   1 Linda.
 CoulSu:  requested number of processors reduced to:  13 ShMem   1 Linda.
 CoulSu:  requested number of processors reduced to:  13 ShMem   1 Linda.
 CoulSu:  requested number of processors reduced to:  14 ShMem   1 Linda.
 CalDSu:  requested number of processors reduced to:  21 ShMem   1 Linda.
 CoulSu:  requested number of processors reduced to:  13 ShMem   1 Linda.
 CoulSu:  requested number of processors reduced to:  13 ShMem   1 Linda.
 CoulSu:  requested number of processors reduced to:  14 ShMem   1 Linda.
 CalDSu:  requested number of processors reduced to:  21 ShMem   1 Linda.
 CoulSu:  requested number of processors reduced to:  13 ShMem   1 Linda.
 CoulSu:  requested number of processors reduced to:  13 ShMem   1 Linda.
 CoulSu:  requested number of processors reduced to:  14 ShMem   1 Linda.
 CalDSu:  requested number of processors reduced to:  21 ShMem   1 Linda.
 CoulSu:  requested number of processors reduced to:  13 ShMem   1 Linda.
 CoulSu:  requested number of processors reduced to:  13 ShMem   1 Linda.
 CoulSu:  requested number of processors reduced to:  14 ShMem   1 Linda.
 CalDSu:  requested number of processors reduced to:  21 ShMem   1 Linda.
 CoulSu:  requested number of processors reduced to:  13 ShMem   1 Linda.
 CoulSu:  requested number of processors reduced to:  13 ShMem   1 Linda.
 CoulSu:  requested number of processors reduced to:  14 ShMem   1 Linda.
 CalDSu:  requested number of processors reduced to:  21 ShMem   1 Linda.
 CoulSu:  requested number of processors reduced to:  13 ShMem   1 Linda.
 CoulSu:  requested number of processors reduced to:  13 ShMem   1 Linda.
 CoulSu:  requested number of processors reduced to:  14 ShMem   1 Linda.
 CalDSu:  requested number of processors reduced to:  21 ShMem   1 Linda.
 CoulSu:  requested number of processors reduced to:  13 ShMem   1 Linda.
 CoulSu:  requested number of processors reduced to:  13 ShMem   1 Linda.
 CoulSu:  requested number of processors reduced to:  14 ShMem   1 Linda.
 CalDSu:  requested number of processors reduced to:  21 ShMem   1 Linda.
 CoulSu:  requested number of processors reduced to:  13 ShMem   1 Linda.
 CoulSu:  requested number of processors reduced to:  13 ShMem   1 Linda.
 CoulSu:  requested number of processors reduced to:  14 ShMem   1 Linda.
 CalDSu:  requested number of processors reduced to:  21 ShMem   1 Linda.
 CoulSu:  requested number of processors reduced to:  13 ShMem   1 Linda.
 CoulSu:  requested number of processors reduced to:  13 ShMem   1 Linda.
 CoulSu:  requested number of processors reduced to:  14 ShMem   1 Linda.
 CalDSu:  requested number of processors reduced to:  21 ShMem   1 Linda.
 CoulSu:  requested number of processors reduced to:  13 ShMem   1 Linda.
 CoulSu:  requested number of processors reduced to:  13 ShMem   1 Linda.
 CoulSu:  requested number of processors reduced to:  14 ShMem   1 Linda.
 CalDSu:  requested number of processors reduced to:  21 ShMem   1 Linda.
 CoulSu:  requested number of processors reduced to:  13 ShMem   1 Linda.
 CoulSu:  requested number of processors reduced to:  13 ShMem   1 Linda.
 CoulSu:  requested number of processors reduced to:  14 ShMem   1 Linda.
 CalDSu:  requested number of processors reduced to:  21 ShMem   1 Linda.
 CoulSu:  requested number of processors reduced to:  13 ShMem   1 Linda.
 CoulSu:  requested number of processors reduced to:  13 ShMem   1 Linda.
 CoulSu:  requested number of processors reduced to:  14 ShMem   1 Linda.
 CalDSu:  requested number of processors reduced to:  21 ShMem   1 Linda.
 CoulSu:  requested number of processors reduced to:  13 ShMem   1 Linda.
 CoulSu:  requested number of processors reduced to:  13 ShMem   1 Linda.
 CoulSu:  requested number of processors reduced to:  14 ShMem   1 Linda.
 CalDSu:  requested number of processors reduced to:  21 ShMem   1 Linda.
 CoulSu:  requested number of processors reduced to:  13 ShMem   1 Linda.
 CoulSu:  requested number of processors reduced to:  13 ShMem   1 Linda.
 CoulSu:  requested number of processors reduced to:  14 ShMem   1 Linda.
 CalDSu:  requested number of processors reduced to:  21 ShMem   1 Linda.
 CoulSu:  requested number of processors reduced to:  13 ShMem   1 Linda.
 CoulSu:  requested number of processors reduced to:  13 ShMem   1 Linda.
 CoulSu:  requested number of processors reduced to:  14 ShMem   1 Linda.
 CalDSu:  requested number of processors reduced to:  21 ShMem   1 Linda.
 CoulSu:  requested number of processors reduced to:  13 ShMem   1 Linda.
 CoulSu:  requested number of processors reduced to:  13 ShMem   1 Linda.
 CoulSu:  requested number of processors reduced to:  14 ShMem   1 Linda.
 CalDSu:  requested number of processors reduced to:  21 ShMem   1 Linda.
 CoulSu:  requested number of processors reduced to:  13 ShMem   1 Linda.
 CoulSu:  requested number of processors reduced to:  13 ShMem   1 Linda.
 CoulSu:  requested number of processors reduced to:  14 ShMem   1 Linda.
 CalDSu:  requested number of processors reduced to:  21 ShMem   1 Linda.
 CoulSu:  requested number of processors reduced to:  13 ShMem   1 Linda.
 CoulSu:  requested number of processors reduced to:  13 ShMem   1 Linda.
 CoulSu:  requested number of processors reduced to:  14 ShMem   1 Linda.
 CalDSu:  requested number of processors reduced to:  21 ShMem   1 Linda.
 CoulSu:  requested number of processors reduced to:  13 ShMem   1 Linda.
 CoulSu:  requested number of processors reduced to:  13 ShMem   1 Linda.
 CoulSu:  requested number of processors reduced to:  14 ShMem   1 Linda.
 CalDSu:  requested number of processors reduced to:  21 ShMem   1 Linda.
 CoulSu:  requested number of processors reduced to:  13 ShMem   1 Linda.
 CoulSu:  requested number of processors reduced to:  13 ShMem   1 Linda.
 CoulSu:  requested number of processors reduced to:  14 ShMem   1 Linda.
 CalDSu:  requested number of processors reduced to:  21 ShMem   1 Linda.
 CoulSu:  requested number of processors reduced to:  13 ShMem   1 Linda.
 CoulSu:  requested number of processors reduced to:  13 ShMem   1 Linda.
 CoulSu:  requested number of processors reduced to:  14 ShMem   1 Linda.
 CalDSu:  requested number of processors reduced to:  21 ShMem   1 Linda.
 CoulSu:  requested number of processors reduced to:  13 ShMem   1 Linda.
 CoulSu:  requested number of processors reduced to:  13 ShMem   1 Linda.
 CoulSu:  requested number of processors reduced to:  14 ShMem   1 Linda.
 CalDSu:  requested number of processors reduced to:  21 ShMem   1 Linda.
 CoulSu:  requested number of processors reduced to:  13 ShMem   1 Linda.
 CoulSu:  requested number of processors reduced to:  13 ShMem   1 Linda.
 CoulSu:  requested number of processors reduced to:  14 ShMem   1 Linda.
 CalDSu:  requested number of processors reduced to:  21 ShMem   1 Linda.
 CoulSu:  requested number of processors reduced to:  13 ShMem   1 Linda.
 CoulSu:  requested number of processors reduced to:  13 ShMem   1 Linda.
 CoulSu:  requested number of processors reduced to:  14 ShMem   1 Linda.
 CalDSu:  requested number of processors reduced to:  21 ShMem   1 Linda.
 CoulSu:  requested number of processors reduced to:  13 ShMem   1 Linda.
 CoulSu:  requested number of processors reduced to:  13 ShMem   1 Linda.
 CoulSu:  requested number of processors reduced to:  14 ShMem   1 Linda.
 CalDSu:  requested number of processors reduced to:  21 ShMem   1 Linda.
 CoulSu:  requested number of processors reduced to:  13 ShMem   1 Linda.
 CoulSu:  requested number of processors reduced to:  13 ShMem   1 Linda.
 CoulSu:  requested number of processors reduced to:  14 ShMem   1 Linda.
 CalDSu:  requested number of processors reduced to:  21 ShMem   1 Linda.
 CoulSu:  requested number of processors reduced to:  13 ShMem   1 Linda.
 CoulSu:  requested number of processors reduced to:  13 ShMem   1 Linda.
 CoulSu:  requested number of processors reduced to:  14 ShMem   1 Linda.
 CalDSu:  requested number of processors reduced to:  21 ShMem   1 Linda.
 CoulSu:  requested number of processors reduced to:  13 ShMem   1 Linda.
 CoulSu:  requested number of processors reduced to:  13 ShMem   1 Linda.
 CoulSu:  requested number of processors reduced to:  14 ShMem   1 Linda.
 CalDSu:  requested number of processors reduced to:  21 ShMem   1 Linda.
 CoulSu:  requested number of processors reduced to:  13 ShMem   1 Linda.
 CoulSu:  requested number of processors reduced to:  13 ShMem   1 Linda.
 CoulSu:  requested number of processors reduced to:  14 ShMem   1 Linda.
 CalDSu:  requested number of processors reduced to:  21 ShMem   1 Linda.
 CoulSu:  requested number of processors reduced to:  13 ShMem   1 Linda.
 CoulSu:  requested number of processors reduced to:  13 ShMem   1 Linda.
 CoulSu:  requested number of processors reduced to:  14 ShMem   1 Linda.
 CalDSu:  requested number of processors reduced to:  21 ShMem   1 Linda.
 CoulSu:  requested number of processors reduced to:  13 ShMem   1 Linda.
 CoulSu:  requested number of processors reduced to:  13 ShMem   1 Linda.
 CoulSu:  requested number of processors reduced to:  14 ShMem   1 Linda.
 CalDSu:  requested number of processors reduced to:  21 ShMem   1 Linda.
 CoulSu:  requested number of processors reduced to:  13 ShMem   1 Linda.
 CoulSu:  requested number of processors reduced to:  13 ShMem   1 Linda.
 CoulSu:  requested number of processors reduced to:  14 ShMem   1 Linda.
 CalDSu:  requested number of processors reduced to:  21 ShMem   1 Linda.
 CoulSu:  requested number of processors reduced to:  13 ShMem   1 Linda.
 CoulSu:  requested number of processors reduced to:  13 ShMem   1 Linda.
 CoulSu:  requested number of processors reduced to:  14 ShMem   1 Linda.
 CalDSu:  requested number of processors reduced to:  21 ShMem   1 Linda.
 CoulSu:  requested number of processors reduced to:  13 ShMem   1 Linda.
 CoulSu:  requested number of processors reduced to:  13 ShMem   1 Linda.
 CoulSu:  requested number of processors reduced to:  14 ShMem   1 Linda.
 CalDSu:  requested number of processors reduced to:  21 ShMem   1 Linda.
 CoulSu:  requested number of processors reduced to:  13 ShMem   1 Linda.
 CoulSu:  requested number of processors reduced to:  13 ShMem   1 Linda.
 CoulSu:  requested number of processors reduced to:  14 ShMem   1 Linda.
 CalDSu:  requested number of processors reduced to:  21 ShMem   1 Linda.
 CoulSu:  requested number of processors reduced to:  13 ShMem   1 Linda.
 CoulSu:  requested number of processors reduced to:  13 ShMem   1 Linda.
 CoulSu:  requested number of processors reduced to:  14 ShMem   1 Linda.
 CalDSu:  requested number of processors reduced to:  21 ShMem   1 Linda.
 CoulSu:  requested number of processors reduced to:  13 ShMem   1 Linda.
 CoulSu:  requested number of processors reduced to:  13 ShMem   1 Linda.
 CoulSu:  requested number of processors reduced to:  14 ShMem   1 Linda.
 CalDSu:  requested number of processors reduced to:  21 ShMem   1 Linda.
 CoulSu:  requested number of processors reduced to:  13 ShMem   1 Linda.
 CoulSu:  requested number of processors reduced to:  13 ShMem   1 Linda.
 CoulSu:  requested number of processors reduced to:  14 ShMem   1 Linda.
 CalDSu:  requested number of processors reduced to:  21 ShMem   1 Linda.
 CoulSu:  requested number of processors reduced to:  13 ShMem   1 Linda.
 CoulSu:  requested number of processors reduced to:  13 ShMem   1 Linda.
 CoulSu:  requested number of processors reduced to:  14 ShMem   1 Linda.
 CalDSu:  requested number of processors reduced to:  21 ShMem   1 Linda.
 CoulSu:  requested number of processors reduced to:  13 ShMem   1 Linda.
 CoulSu:  requested number of processors reduced to:  13 ShMem   1 Linda.
 CoulSu:  requested number of processors reduced to:  14 ShMem   1 Linda.
 CalDSu:  requested number of processors reduced to:  21 ShMem   1 Linda.
 CoulSu:  requested number of processors reduced to:  13 ShMem   1 Linda.
 CoulSu:  requested number of processors reduced to:  13 ShMem   1 Linda.
 CoulSu:  requested number of processors reduced to:  14 ShMem   1 Linda.
 CalDSu:  requested number of processors reduced to:  21 ShMem   1 Linda.
 CoulSu:  requested number of processors reduced to:  13 ShMem   1 Linda.
 CoulSu:  requested number of processors reduced to:  13 ShMem   1 Linda.
 CoulSu:  requested number of processors reduced to:  14 ShMem   1 Linda.
 CalDSu:  requested number of processors reduced to:  21 ShMem   1 Linda.
 CoulSu:  requested number of processors reduced to:  13 ShMem   1 Linda.
 CoulSu:  requested number of processors reduced to:  13 ShMem   1 Linda.
 CoulSu:  requested number of processors reduced to:  14 ShMem   1 Linda.
 CalDSu:  requested number of processors reduced to:  21 ShMem   1 Linda.
 CoulSu:  requested number of processors reduced to:  13 ShMem   1 Linda.
 CoulSu:  requested number of processors reduced to:  13 ShMem   1 Linda.
 CoulSu:  requested number of processors reduced to:  14 ShMem   1 Linda.
 CalDSu:  requested number of processors reduced to:  21 ShMem   1 Linda.
 CoulSu:  requested number of processors reduced to:  13 ShMem   1 Linda.
 CoulSu:  requested number of processors reduced to:  13 ShMem   1 Linda.
 CoulSu:  requested number of processors reduced to:  14 ShMem   1 Linda.
 CalDSu:  requested number of processors reduced to:  21 ShMem   1 Linda.
          There are    66 degrees of freedom in the 1st order CPHF.  IDoFFX=6 NUNeed=     3.
     63 vectors produced by pass  0 Test12= 5.42D-14 1.52D-09 XBig12= 9.94D+01 2.47D+00.
 Estimated number of processors is:   14
 AX will form     1 AO Fock derivatives at one time.
 CoulSu:  requested number of processors reduced to:  13 ShMem   1 Linda.
 CoulSu:  requested number of processors reduced to:  13 ShMem   1 Linda.
 CoulSu:  requested number of processors reduced to:  14 ShMem   1 Linda.
 CalDSu:  requested number of processors reduced to:  21 ShMem   1 Linda.
 CoulSu:  requested number of processors reduced to:  13 ShMem   1 Linda.
 CoulSu:  requested number of processors reduced to:  13 ShMem   1 Linda.
 CoulSu:  requested number of processors reduced to:  14 ShMem   1 Linda.
 CalDSu:  requested number of processors reduced to:  21 ShMem   1 Linda.
 CoulSu:  requested number of processors reduced to:  13 ShMem   1 Linda.
 CoulSu:  requested number of processors reduced to:  13 ShMem   1 Linda.
 CoulSu:  requested number of processors reduced to:  14 ShMem   1 Linda.
 CalDSu:  requested number of processors reduced to:  21 ShMem   1 Linda.
 CoulSu:  requested number of processors reduced to:  13 ShMem   1 Linda.
 CoulSu:  requested number of processors reduced to:  13 ShMem   1 Linda.
 CoulSu:  requested number of processors reduced to:  14 ShMem   1 Linda.
 CalDSu:  requested number of processors reduced to:  21 ShMem   1 Linda.
 CoulSu:  requested number of processors reduced to:  13 ShMem   1 Linda.
 CoulSu:  requested number of processors reduced to:  13 ShMem   1 Linda.
 CoulSu:  requested number of processors reduced to:  14 ShMem   1 Linda.
 CalDSu:  requested number of processors reduced to:  21 ShMem   1 Linda.
 CoulSu:  requested number of processors reduced to:  13 ShMem   1 Linda.
 CoulSu:  requested number of processors reduced to:  13 ShMem   1 Linda.
 CoulSu:  requested number of processors reduced to:  14 ShMem   1 Linda.
 CalDSu:  requested number of processors reduced to:  21 ShMem   1 Linda.
 CoulSu:  requested number of processors reduced to:  13 ShMem   1 Linda.
 CoulSu:  requested number of processors reduced to:  13 ShMem   1 Linda.
 CoulSu:  requested number of processors reduced to:  14 ShMem   1 Linda.
 CalDSu:  requested number of processors reduced to:  21 ShMem   1 Linda.
 CoulSu:  requested number of processors reduced to:  13 ShMem   1 Linda.
 CoulSu:  requested number of processors reduced to:  13 ShMem   1 Linda.
 CoulSu:  requested number of processors reduced to:  14 ShMem   1 Linda.
 CalDSu:  requested number of processors reduced to:  21 ShMem   1 Linda.
 CoulSu:  requested number of processors reduced to:  13 ShMem   1 Linda.
 CoulSu:  requested number of processors reduced to:  13 ShMem   1 Linda.
 CoulSu:  requested number of processors reduced to:  14 ShMem   1 Linda.
 CalDSu:  requested number of processors reduced to:  21 ShMem   1 Linda.
 CoulSu:  requested number of processors reduced to:  13 ShMem   1 Linda.
 CoulSu:  requested number of processors reduced to:  13 ShMem   1 Linda.
 CoulSu:  requested number of processors reduced to:  14 ShMem   1 Linda.
 CalDSu:  requested number of processors reduced to:  21 ShMem   1 Linda.
 CoulSu:  requested number of processors reduced to:  13 ShMem   1 Linda.
 CoulSu:  requested number of processors reduced to:  13 ShMem   1 Linda.
 CoulSu:  requested number of processors reduced to:  14 ShMem   1 Linda.
 CalDSu:  requested number of processors reduced to:  21 ShMem   1 Linda.
 CoulSu:  requested number of processors reduced to:  13 ShMem   1 Linda.
 CoulSu:  requested number of processors reduced to:  13 ShMem   1 Linda.
 CoulSu:  requested number of processors reduced to:  14 ShMem   1 Linda.
 CalDSu:  requested number of processors reduced to:  21 ShMem   1 Linda.
 CoulSu:  requested number of processors reduced to:  13 ShMem   1 Linda.
 CoulSu:  requested number of processors reduced to:  13 ShMem   1 Linda.
 CoulSu:  requested number of processors reduced to:  14 ShMem   1 Linda.
 CalDSu:  requested number of processors reduced to:  21 ShMem   1 Linda.
 CoulSu:  requested number of processors reduced to:  13 ShMem   1 Linda.
 CoulSu:  requested number of processors reduced to:  13 ShMem   1 Linda.
 CoulSu:  requested number of processors reduced to:  14 ShMem   1 Linda.
 CalDSu:  requested number of processors reduced to:  21 ShMem   1 Linda.
 CoulSu:  requested number of processors reduced to:  13 ShMem   1 Linda.
 CoulSu:  requested number of processors reduced to:  13 ShMem   1 Linda.
 CoulSu:  requested number of processors reduced to:  14 ShMem   1 Linda.
 CalDSu:  requested number of processors reduced to:  21 ShMem   1 Linda.
 CoulSu:  requested number of processors reduced to:  13 ShMem   1 Linda.
 CoulSu:  requested number of processors reduced to:  13 ShMem   1 Linda.
 CoulSu:  requested number of processors reduced to:  14 ShMem   1 Linda.
 CalDSu:  requested number of processors reduced to:  21 ShMem   1 Linda.
 CoulSu:  requested number of processors reduced to:  13 ShMem   1 Linda.
 CoulSu:  requested number of processors reduced to:  13 ShMem   1 Linda.
 CoulSu:  requested number of processors reduced to:  14 ShMem   1 Linda.
 CalDSu:  requested number of processors reduced to:  21 ShMem   1 Linda.
 CoulSu:  requested number of processors reduced to:  13 ShMem   1 Linda.
 CoulSu:  requested number of processors reduced to:  13 ShMem   1 Linda.
 CoulSu:  requested number of processors reduced to:  14 ShMem   1 Linda.
 CalDSu:  requested number of processors reduced to:  21 ShMem   1 Linda.
 CoulSu:  requested number of processors reduced to:  13 ShMem   1 Linda.
 CoulSu:  requested number of processors reduced to:  13 ShMem   1 Linda.
 CoulSu:  requested number of processors reduced to:  14 ShMem   1 Linda.
 CalDSu:  requested number of processors reduced to:  21 ShMem   1 Linda.
 CoulSu:  requested number of processors reduced to:  13 ShMem   1 Linda.
 CoulSu:  requested number of processors reduced to:  13 ShMem   1 Linda.
 CoulSu:  requested number of processors reduced to:  14 ShMem   1 Linda.
 CalDSu:  requested number of processors reduced to:  21 ShMem   1 Linda.
 CoulSu:  requested number of processors reduced to:  13 ShMem   1 Linda.
 CoulSu:  requested number of processors reduced to:  13 ShMem   1 Linda.
 CoulSu:  requested number of processors reduced to:  14 ShMem   1 Linda.
 CalDSu:  requested number of processors reduced to:  21 ShMem   1 Linda.
 CoulSu:  requested number of processors reduced to:  13 ShMem   1 Linda.
 CoulSu:  requested number of processors reduced to:  13 ShMem   1 Linda.
 CoulSu:  requested number of processors reduced to:  14 ShMem   1 Linda.
 CalDSu:  requested number of processors reduced to:  21 ShMem   1 Linda.
 CoulSu:  requested number of processors reduced to:  13 ShMem   1 Linda.
 CoulSu:  requested number of processors reduced to:  13 ShMem   1 Linda.
 CoulSu:  requested number of processors reduced to:  14 ShMem   1 Linda.
 CalDSu:  requested number of processors reduced to:  21 ShMem   1 Linda.
 CoulSu:  requested number of processors reduced to:  13 ShMem   1 Linda.
 CoulSu:  requested number of processors reduced to:  13 ShMem   1 Linda.
 CoulSu:  requested number of processors reduced to:  14 ShMem   1 Linda.
 CalDSu:  requested number of processors reduced to:  21 ShMem   1 Linda.
 CoulSu:  requested number of processors reduced to:  13 ShMem   1 Linda.
 CoulSu:  requested number of processors reduced to:  13 ShMem   1 Linda.
 CoulSu:  requested number of processors reduced to:  14 ShMem   1 Linda.
 CalDSu:  requested number of processors reduced to:  21 ShMem   1 Linda.
 CoulSu:  requested number of processors reduced to:  13 ShMem   1 Linda.
 CoulSu:  requested number of processors reduced to:  13 ShMem   1 Linda.
 CoulSu:  requested number of processors reduced to:  14 ShMem   1 Linda.
 CalDSu:  requested number of processors reduced to:  21 ShMem   1 Linda.
 CoulSu:  requested number of processors reduced to:  13 ShMem   1 Linda.
 CoulSu:  requested number of processors reduced to:  13 ShMem   1 Linda.
 CoulSu:  requested number of processors reduced to:  14 ShMem   1 Linda.
 CalDSu:  requested number of processors reduced to:  21 ShMem   1 Linda.
 CoulSu:  requested number of processors reduced to:  13 ShMem   1 Linda.
 CoulSu:  requested number of processors reduced to:  13 ShMem   1 Linda.
 CoulSu:  requested number of processors reduced to:  14 ShMem   1 Linda.
 CalDSu:  requested number of processors reduced to:  21 ShMem   1 Linda.
 CoulSu:  requested number of processors reduced to:  13 ShMem   1 Linda.
 CoulSu:  requested number of processors reduced to:  13 ShMem   1 Linda.
 CoulSu:  requested number of processors reduced to:  14 ShMem   1 Linda.
 CalDSu:  requested number of processors reduced to:  21 ShMem   1 Linda.
 CoulSu:  requested number of processors reduced to:  13 ShMem   1 Linda.
 CoulSu:  requested number of processors reduced to:  13 ShMem   1 Linda.
 CoulSu:  requested number of processors reduced to:  14 ShMem   1 Linda.
 CalDSu:  requested number of processors reduced to:  21 ShMem   1 Linda.
 CoulSu:  requested number of processors reduced to:  13 ShMem   1 Linda.
 CoulSu:  requested number of processors reduced to:  13 ShMem   1 Linda.
 CoulSu:  requested number of processors reduced to:  14 ShMem   1 Linda.
 CalDSu:  requested number of processors reduced to:  21 ShMem   1 Linda.
 CoulSu:  requested number of processors reduced to:  13 ShMem   1 Linda.
 CoulSu:  requested number of processors reduced to:  13 ShMem   1 Linda.
 CoulSu:  requested number of processors reduced to:  14 ShMem   1 Linda.
 CalDSu:  requested number of processors reduced to:  21 ShMem   1 Linda.
 CoulSu:  requested number of processors reduced to:  13 ShMem   1 Linda.
 CoulSu:  requested number of processors reduced to:  13 ShMem   1 Linda.
 CoulSu:  requested number of processors reduced to:  14 ShMem   1 Linda.
 CalDSu:  requested number of processors reduced to:  21 ShMem   1 Linda.
 CoulSu:  requested number of processors reduced to:  13 ShMem   1 Linda.
 CoulSu:  requested number of processors reduced to:  13 ShMem   1 Linda.
 CoulSu:  requested number of processors reduced to:  14 ShMem   1 Linda.
 CalDSu:  requested number of processors reduced to:  21 ShMem   1 Linda.
 CoulSu:  requested number of processors reduced to:  13 ShMem   1 Linda.
 CoulSu:  requested number of processors reduced to:  13 ShMem   1 Linda.
 CoulSu:  requested number of processors reduced to:  14 ShMem   1 Linda.
 CalDSu:  requested number of processors reduced to:  21 ShMem   1 Linda.
[...]
 8,-0.00110291,-0.00192139,0.00032155,-0.00107118,-0.00033415,-0.000856
 40,0.00113461,-0.03004789,-0.03897313,-0.00029224,0.00342467,0.0763480
 8,-0.00171295,0.00628207,-0.00529611,0.00076176,0.00033347,0.00074134,
 0.00010811,-0.00051579,-0.00040964,-0.00159300,-0.00077862,0.00200973,
 0.00015363,-0.00265548,-0.00294692,-0.00120101,0.00032136,0.00111448,0
 .00043401,-0.00009974,0.00047151,-0.00005277,0.00010272,0.00007547,-0.
 01125043,-0.00374059,-0.04547061,-0.13646125,0.02942074,0.20003785,0.0
 0032274,0.02658349,-0.00701352,-0.00105414,-0.00291975,0.00026271,0.00
 023500,-0.00318494,-0.00317456,-0.00420722,-0.00291454,0.00433987,-0.0
 0256768,-0.01798384,-0.00408251,-0.00371275,0.00211436,0.00232165,0.00
 143612,0.00033236,0.00073862,0.00001527,0.00240533,-0.00275983,-0.0580
 4313,-0.01338624,0.01808268,-0.16504381,0.02740556,0.11260010,0.575978
 81,0.03626138,-0.05923076,0.02449581,-0.01199152,-0.00669937,-0.005895
 68,-0.00296624,0.00742105,0.00894221,0.00664106,0.00553810,-0.00879283
 ,-0.00635369,0.00769553,0.00213879,0.00429737,-0.00106007,-0.00182457,
 0.00163677,-0.00054803,0.00075371,0.00070017,-0.00066438,0.00072636,0.
 01470034,0.02092011,-0.00202385,0.01467962,-0.04030357,-0.01906882,0.0
 1130983,0.39158812,-0.00268326,0.00543252,0.00685633,-0.00038028,-0.00
 120314,-0.00149792,0.00066766,-0.00090294,-0.00141507,0.00093120,-0.00
 017939,-0.00168590,0.00133333,0.00817192,0.00732176,0.00252416,-0.0007
 0918,-0.00292618,-0.00131814,0.00022678,-0.00111550,-0.00013426,-0.000
 46273,0.00016335,0.04386449,0.00808874,0.01394366,0.10908802,-0.025235
 93,-0.14423951,0.00859266,-0.03286472,0.48446779,-0.08177827,0.0983699
 5,-0.03785141,-0.01095640,0.00155786,-0.00732630,-0.00125942,0.0057195
 3,0.00770684,0.01157355,-0.00037206,-0.00701528,0.00341939,0.00765258,
 -0.00058016,-0.00065503,-0.00181654,-0.00051264,-0.00084606,-0.0000974
 8,-0.00034679,0.00006348,-0.00150545,0.00191604,0.01526016,0.00365547,
 -0.00214909,-0.01616362,0.01975890,0.01077859,-0.03957665,0.01763816,-
 0.00202597,0.12530683,0.09525651,-0.18765435,0.06488807,0.01485320,0.0
 1616649,0.00696876,0.00498528,-0.01197890,-0.01533695,-0.01257346,-0.0
 0786479,0.01529486,0.00214505,-0.01335284,-0.00180414,-0.00473474,0.00
 142439,0.00139803,-0.00060419,0.00053924,-0.00029232,-0.00061317,0.001
 68347,-0.00199615,-0.02600114,-0.01610526,0.00315556,0.03523243,-0.014
 73102,-0.01393559,0.02350981,-0.17057675,0.00637570,-0.14796790,0.4388
 7194,-0.03956435,0.06962361,-0.05730210,-0.00734951,0.00035589,-0.0016
 5467,0.00117743,-0.00035866,0.01176081,0.00030350,0.00603423,-0.003554
 80,0.00041806,0.00058388,-0.00288865,-0.00140625,-0.00053624,0.0009565
 7,0.00004079,-0.00007826,0.00016913,0.00014444,-0.00058643,0.00092178,
 -0.00231291,-0.00008885,-0.00386413,0.00783960,-0.00814384,0.00474952,
 0.00217640,-0.01037057,-0.03642528,0.04368460,-0.07434450,0.07649861,0
 .00332533,-0.00611298,-0.00005044,-0.00061882,0.00000160,-0.00023458,-
 0.00017410,0.00117543,0.00140048,-0.00002938,0.00101261,-0.00040899,-0
 .05232109,-0.07357225,-0.02427756,0.00967598,0.00338689,-0.00353982,-0
 .00573280,-0.00542786,-0.00502847,0.00059755,-0.00402249,0.00574477,-0
 .03469045,-0.00283843,0.00094036,-0.01843999,-0.02301146,0.00177977,0.
 01219668,-0.00231032,-0.01041638,-0.00558773,0.00606931,0.00041741,0.0
 8176782,-0.00120432,-0.01327317,0.00109550,0.00075164,0.00108065,0.000
 41814,0.00040416,0.00179637,0.00201784,0.00290817,0.00204993,-0.001736
 44,-0.07124730,-0.22650073,-0.06711369,0.01657220,-0.00633357,-0.01469
 233,-0.01984800,0.00939201,-0.00986460,-0.00277461,-0.01311828,0.01738
 663,-0.00501495,-0.16616303,-0.01382412,-0.03832770,-0.01707468,0.0058
 7804,0.02553499,-0.01629354,-0.01690601,-0.00740721,0.01719048,-0.0003
 9631,0.09854712,0.48040612,0.00005057,-0.00143616,-0.00222823,0.000119
 32,0.00019074,0.00018358,0.00006110,0.00058348,0.00078779,-0.00047810,
 0.00020001,0.00070866,-0.02432392,-0.07148866,-0.05296138,0.00202698,-
 0.00605407,-0.00299733,-0.00624133,-0.00193725,-0.00190177,0.00137487,
 0.00199079,0.01177719,0.00283643,-0.00136109,-0.03958432,-0.00826317,-
 0.00422984,0.01034770,0.00305122,-0.00307490,-0.00698603,-0.00028206,0
 .00194408,0.00132858,0.02833854,0.09409622,0.07526127,0.00058805,-0.00
 609046,0.00150170,-0.00001068,0.00041636,-0.00016235,-0.00008934,0.000
 91312,0.00103836,0.00109111,0.00079205,-0.00112691,-0.00009477,0.00341
 636,-0.00029899,0.00071627,-0.00048529,-0.00022576,0.00002892,-0.00020
 185,0.00012057,0.00003749,-0.00054529,0.00066978,-0.00009264,0.0042676
 9,-0.00649855,0.00401701,-0.00180458,0.01636323,-0.08332560,0.02014950
 ,-0.06433298,0.00101364,0.01172870,-0.00867448,-0.00051317,-0.00395074
 ,0.00059809,0.28470842,-0.00500380,0.00743848,-0.00333894,0.00180409,0
 .00101579,0.00092202,0.00045206,-0.00107345,-0.00138356,-0.00095630,-0
 .00075403,0.00130985,0.00191551,-0.00087758,-0.00112869,-0.00102144,0.
 00012914,0.00073260,-0.00057457,0.00010391,-0.00021396,-0.00015713,-0.
 00008863,0.00016573,0.00110881,-0.00472062,0.00123719,0.00062113,0.005
 69066,0.00043486,0.02894167,-0.04640460,0.05471637,0.01258030,-0.01744
 814,0.01785083,-0.00032640,0.00235154,0.00070192,-0.02171620,0.0533308
 1,0.00298719,-0.00631139,-0.00007901,-0.00067717,0.00001481,-0.0001906
 0,-0.00046981,0.00122864,0.00183971,0.00052382,0.00054232,-0.00057792,
 -0.00139359,-0.00320638,-0.00302115,-0.00067308,0.00027676,0.00113430,
 0.00079436,-0.00015196,0.00061730,0.00012089,0.00014590,-0.00000285,-0
 .01929205,-0.00351987,-0.00476562,0.01400579,0.00602330,-0.03095984,-0
 .09441499,0.05601165,-0.23521989,-0.00853829,0.01364834,-0.00343223,0.
 00359707,0.00591873,0.00230610,-0.16195755,-0.08576025,0.66091171,0.00
 060962,0.00020300,-0.00018192,-0.00019671,-0.00015869,-0.00002126,-0.0
 0008342,-0.00001778,0.00010309,-0.00010790,-0.00006861,0.00007978,-0.0
 0000594,-0.00012475,0.00036944,0.00003085,0.00004422,-0.00012265,-0.00
 002792,0.00003408,-0.00006102,0.00000143,0.00008253,-0.00012137,-0.000
 20541,0.00026024,-0.00067245,0.00176312,0.00051829,-0.00227210,0.00422
 351,0.00248877,-0.01453376,-0.00158767,0.00087788,-0.00045261,0.000006
 83,-0.00001997,-0.00008437,-0.19491873,-0.00981739,0.26831221,0.192339
 40,0.00059953,-0.00077240,0.00114667,-0.00030208,-0.00016039,-0.000201
 27,-0.00001418,0.00004514,-0.00017938,0.00013231,0.00012497,-0.0002205
 0,-0.00048905,0.00045344,0.00061230,0.00040896,-0.00008422,-0.00039656
 ,0.00015366,-0.00001832,0.00003317,0.00004189,0.00006758,-0.00011978,0
 .00026328,0.00053114,-0.00000929,0.00049071,0.00212230,0.00021515,-0.0
 0263550,0.00080649,0.00803270,0.00074922,-0.00041110,-0.00165702,-0.00
 009287,-0.00065610,-0.00018301,-0.00485235,-0.00549951,0.01404806,0.00
 606589,0.00457496,-0.00091105,0.00244649,-0.00048730,0.00019324,-0.000
 05400,0.00010959,0.00014402,-0.00043721,-0.00056375,-0.00026899,-0.000
 24027,0.00032948,0.00046586,0.00041655,0.00029019,-0.00003366,-0.00006
 012,-0.00010364,-0.00019096,0.00002310,-0.00011792,-0.00004192,-0.0000
 2405,0.00000360,-0.00002760,0.00025925,-0.00129125,-0.00032796,0.00078
 576,-0.00120568,0.01269102,0.00293300,-0.02264286,0.00094608,-0.003952
 85,0.00228266,-0.00030801,-0.00051113,0.00003058,0.23813876,0.01956742
 ,-0.38208724,-0.25228981,-0.02099861,0.40099750,-0.01010992,0.00386893
 ,-0.00401224,0.00366465,0.00423771,0.00112205,0.00052465,-0.00027266,-
 0.00045729,0.00038330,0.00001966,0.00001497,0.00111995,0.00361852,0.00
 061803,0.00041165,-0.00039160,-0.00034823,-0.00049820,-0.00004880,-0.0
 0022919,-0.00008096,-0.00058018,0.00067935,0.01062043,0.00322757,-0.00
 102228,-0.02161603,-0.00731302,0.00386049,-0.22800856,-0.10680338,-0.0
 3391417,0.00650209,-0.01725163,0.00163373,-0.00272692,-0.00561183,-0.0
 0083463,-0.01321528,-0.00573468,-0.01101503,-0.00165398,-0.00021737,0.
 00197879,0.51123539,-0.00814069,0.01248383,-0.00602457,0.00241129,0.00
 020277,0.00144822,0.00062883,-0.00158274,-0.00185244,-0.00143591,-0.00
 121775,0.00200176,0.00151702,-0.00104936,-0.00030983,-0.00090330,0.000
 17806,0.00030631,-0.00046569,0.00011021,-0.00021263,-0.00017958,0.0000
 3119,-0.00002408,0.00023512,-0.00217068,-0.00022361,-0.00031326,0.0049
 2615,-0.00153243,-0.09160926,-0.09216201,-0.00823046,-0.01062397,-0.03
 724659,0.00123620,-0.00005134,0.00180985,0.00028375,0.00381432,0.00639
 693,0.00409441,-0.00008495,-0.00123303,-0.00028686,-0.03940214,0.22590
 990,-0.00199636,0.00079901,-0.00323193,0.00086055,0.00190684,0.0009768
 9,-0.00014624,0.00015283,0.00043736,-0.00019262,-0.00010861,0.00051718
 ,0.00006254,-0.00054147,-0.00094697,-0.00030565,0.00006016,0.00035707,
 0.00009309,-0.00003433,0.00011943,-0.00000903,-0.00004851,0.00012681,-
 0.00358756,-0.00084614,-0.00264332,0.01151849,0.00075889,0.00500485,-0
 .04633966,-0.01677255,-0.04861789,-0.00040104,-0.00432666,0.01008915,0
 .00080174,0.00144960,0.00079855,-0.01869325,-0.00433394,-0.00609579,0.
 00083318,-0.00007361,0.00322619,0.26583198,-0.12983149,0.23576345,0.00
 123163,-0.00362541,0.00088351,-0.00032739,0.00004919,-0.00014223,-0.00
 014845,0.00055957,0.00060876,0.00049904,0.00046650,-0.00053537,-0.0035
 3945,-0.00045126,-0.00153200,0.00054910,-0.00014838,-0.00023525,0.0015
 6117,-0.00062652,0.00082623,0.00017557,-0.00002742,0.00007433,-0.08542
 979,0.04460814,-0.06910881,-0.02135654,0.00920393,-0.01278984,0.011201
 34,-0.00499599,-0.00740269,-0.00287063,0.00561812,-0.00002599,0.007829
 90,0.00256363,-0.00153094,-0.00336630,0.00070428,0.00427202,-0.0008528
 9,0.00028040,-0.00100018,-0.00235663,-0.00005428,0.00049400,0.29038286
 ,-0.00139446,-0.00092461,0.00019428,0.00044217,0.00026507,0.00018209,0
 .00018233,0.00002674,0.00000335,0.00055325,0.00023640,-0.00031018,0.00
 443243,0.01271848,0.00390375,0.00164026,-0.00096375,-0.00137072,-0.001
 99164,0.00003020,-0.00085030,-0.00036369,-0.00164083,0.00184214,0.0565
 4496,-0.08868306,0.09674878,0.00181340,0.00685820,0.00157603,-0.000927
 03,-0.00403946,0.00246498,0.00024011,0.00161730,-0.00030714,0.00155652
 ,-0.02854286,0.01169973,-0.00059457,0.00273595,-0.00121584,0.00013497,
 -0.00019983,0.00004098,0.00012626,0.00072199,-0.00035014,-0.01006633,0
 .11675279,0.00076819,-0.00025704,-0.00078880,-0.00016130,-0.00003033,0
 .00002196,-0.00012604,0.00022144,0.00033381,-0.00030297,-0.00007575,0.
 00032621,-0.00369994,-0.00569714,-0.00611161,-0.00092540,0.00032749,0.
 00127551,0.00194559,-0.00077955,0.00156351,0.00008182,0.00036915,-0.00
 015900,-0.08995900,0.09761227,-0.20577666,-0.01460339,0.00515330,0.004
 30690,0.00308838,0.00106023,-0.01437335,-0.00074706,0.00038890,0.00193
 121,-0.00182576,0.01733729,0.00445458,0.00517475,-0.00166315,0.0044494
 4,0.00003712,-0.00006942,0.00047196,-0.00033865,-0.00036142,0.00193240
 ,-0.15086994,-0.19007337,0.56370804,0.00112019,-0.00297821,0.00068809,
 -0.00029769,0.00003896,-0.00011788,-0.00014084,0.00047213,0.00050991,0
 .00037660,0.00040534,-0.00043184,-0.00331403,-0.00175438,0.00050042,0.
 00036031,-0.00006954,-0.00017557,0.00113782,-0.00027997,0.00028469,0.0
 0036164,0.00031171,-0.00079782,-0.09019921,0.03889265,0.09075456,-0.02
 017526,0.00392929,0.01919795,0.00730795,-0.00330173,-0.00716715,-0.002
 61513,0.00469069,0.00027632,0.00743246,0.00536274,0.00396302,-0.000391
 50,-0.00011101,0.00326097,0.00014200,-0.00001806,0.00001369,-0.0021119
 7,0.00001029,0.00069183,0.00522464,0.00120912,-0.00482051,0.14742198,-
 0.00119186,-0.00121334,0.00024220,0.00040346,0.00026423,0.00018793,0.0
 0014474,0.00007415,0.00006574,0.00057272,0.00026989,-0.00035904,0.0036
 6026,0.01071637,0.00436567,0.00161956,-0.00094869,-0.00154353,-0.00191
 144,0.00028934,-0.00122514,-0.00006953,-0.00131157,0.00153105,0.037756
 79,-0.05443435,-0.05176172,-0.00102447,0.00602439,-0.00029015,0.000296
 58,-0.00204805,-0.00034845,-0.00021585,0.00188626,-0.00004258,0.003768
 72,-0.02385935,-0.02249084,-0.00027044,0.00067748,-0.00005677,-0.00005
 960,-0.00018408,-0.00005310,0.00004435,0.00054249,0.00019619,-0.001471
 08,0.00320139,0.00922418,-0.11002685,0.15187148,-0.00145713,0.00166103
 ,-0.00149395,0.00048614,0.00018435,0.00031589,0.00015260,-0.00013835,-
 0.00007964,-0.00022233,-0.00023889,0.00057627,0.00363295,0.00908166,0.
 00037209,0.00077746,-0.00063055,-0.00067741,-0.00120335,0.00000127,-0.
 00041526,-0.00035148,-0.00138196,0.00223491,0.11084098,-0.06717662,-0.
 23297435,0.01029605,-0.00285712,-0.00130450,-0.00568186,0.00167107,0.0
 0107792,0.00208055,-0.00290701,0.00058614,0.00271646,-0.02060611,-0.00
 534364,0.00174547,-0.00025802,-0.00039433,-0.00009083,-0.00008665,0.00
 016602,0.00158140,0.00024829,0.00036638,0.00907549,0.00103845,-0.02521
 768,0.01474204,-0.11601948,0.69190010,0.00501242,-0.00344662,0.0021111
 2,-0.00249445,-0.00190150,-0.00074740,-0.00023863,0.00024468,0.0003038
 4,-0.00005775,0.00015244,-0.00010335,-0.00031526,-0.00054382,-0.000152
 45,-0.00000172,0.00006267,0.00005801,0.00012700,-0.00000285,0.00006482
 ,0.00002704,0.00009268,-0.00009565,-0.00171248,-0.00069485,-0.00000603
 ,0.00209887,-0.00026570,0.00079636,-0.02233172,0.00351047,-0.01629111,
 -0.00054491,0.00812692,0.00042968,0.00042954,0.00078941,0.00017508,0.0
 0056627,-0.00064143,-0.00008380,-0.00034235,-0.00014245,-0.00033578,-0
 .25347068,0.14494265,-0.21049802,0.00042491,-0.00002657,0.00026292,0.0
 0033495,0.00005262,-0.00013642,0.27263463,-0.00350326,-0.00349333,-0.0
 0126823,0.00113680,0.00247453,0.00035168,-0.00005909,0.00060002,0.0007
 0621,0.00068904,0.00047719,-0.00063172,-0.00046178,0.00055164,0.000091
 29,0.00029050,-0.00010151,-0.00012511,0.00014378,-0.00004188,0.0000663
 6,0.00006692,-0.00004979,0.00005612,0.00038525,0.00095082,0.00002662,-
 0.00108021,-0.00120422,0.00017340,-0.01496462,0.00400262,-0.00779866,0
 .00250064,-0.00170877,0.00137053,-0.00005841,-0.00082779,-0.00010653,-
 0.00367754,-0.00044548,-0.00204294,0.00006615,0.00008400,0.00042002,0.
 16889320,-0.11616115,0.15225713,-0.00013209,-0.00017948,0.00009167,-0.
 00012317,-0.00019566,-0.00002667,-0.15030008,0.11517206,0.00184739,-0.
 00176562,0.00271389,-0.00082358,-0.00124639,-0.00115534,0.00001036,0.0
 0007629,-0.00014092,0.00018993,0.00010764,-0.00038459,-0.00017319,-0.0
 0007238,0.00010946,0.00008534,-0.00000818,-0.00004742,0.00004679,-0.00
 000549,0.00001391,0.00001685,0.00004577,-0.00007511,-0.00064461,0.0000
 7569,0.00014603,0.00269067,0.00104366,-0.00171601,-0.00228825,0.001651
 35,-0.00148368,0.00087689,0.00438165,-0.00136834,0.00019745,0.00017851
 ,-0.00001365,-0.00189364,-0.00039847,0.00040907,0.00008941,0.00032977,
 0.00042958,-0.22482012,0.13926748,-0.19736744,0.00009589,-0.00001239,0
 .00002247,0.00014248,-0.00009776,-0.00025058,0.22430475,-0.14356462,0.
 20012845,-0.00035660,0.00169897,-0.00062812,0.00010908,-0.00003737,0.0
 0008421,0.00003728,-0.00023572,-0.00023678,-0.00031741,-0.00023948,0.0
 0033640,0.00072365,-0.00124791,0.00002628,-0.00046849,0.00016654,0.000
 28345,-0.00025007,0.00018449,-0.00021498,-0.00002555,0.00018626,-0.000
 22449,0.00591751,0.00493005,-0.01309748,-0.00315727,-0.00084145,0.0026
 9543,-0.00413464,0.00415958,-0.00771471,0.00107520,-0.00281726,0.00138
 250,-0.00110119,0.00249098,-0.00054176,0.00324655,-0.00207749,0.001227
 99,0.00087551,-0.00043408,0.00115456,0.00119411,-0.00023855,0.00121945
 ,-0.19896157,-0.05392343,0.25510498,-0.00075962,0.00093653,-0.00362792
 ,-0.00004970,0.00015128,-0.00001281,0.19578954,0.00052741,-0.00031888,
 0.00025567,-0.00017884,-0.00007797,-0.00008552,-0.00006156,0.00005009,
 0.00004279,-0.00002252,0.00002071,-0.00004952,-0.00012468,-0.00113431,
 0.00107910,-0.00001348,0.00020576,-0.00013592,0.00007578,0.00024221,-0
 .00016312,0.00003863,0.00022915,-0.00029636,-0.00468005,-0.00259046,0.
 01495892,-0.00125140,-0.00126657,-0.00122780,0.00232413,0.00120675,0.0
 0102968,-0.00054612,0.00035110,-0.00024406,0.00174946,-0.00184287,-0.0
 0110327,-0.00135045,-0.00239073,0.00042309,-0.00042862,0.00035781,-0.0
 0027680,-0.00044670,-0.00028592,-0.00018906,-0.04321253,-0.02068069,0.
 06835859,0.00028970,0.00033181,-0.00111193,0.00001496,0.00001155,-0.00
 002260,0.04717882,0.02697775,-0.00037887,0.00034667,0.00017896,0.00008
 154,0.00000685,0.00000470,0.00006073,-0.00011060,-0.00015724,0.0000624
 8,-0.00000538,-0.00005713,0.00073665,0.00222355,0.00136189,0.00037820,
 -0.00016236,-0.00046154,-0.00043738,0.00007803,-0.00034824,-0.00004141
 ,-0.00020648,0.00017739,0.00871322,0.00914746,-0.02265896,0.00537786,-
 0.00213693,0.00196353,-0.00413582,0.00088967,0.00606431,0.00050917,-0.
 00047152,-0.00074805,-0.00068644,-0.00461725,0.00025796,-0.00126825,0.
 00089910,-0.00546159,0.00102950,-0.00024815,0.00015917,0.00022324,0.00
 007657,-0.00084772,0.22721043,0.07471626,-0.33183916,-0.00091832,0.000
 76239,-0.00086130,-0.00013179,-0.00005544,-0.00004720,-0.23664821,-0.0
 8101905,0.35367121,-0.00016324,0.00051439,0.00025239,0.00001986,-0.000
 05143,-0.00003577,0.00003141,-0.00013541,-0.00016396,0.00000637,-0.000
 08264,-0.00005687,0.00090819,0.00020353,-0.00035152,-0.00018948,0.0000
 5532,0.00010138,-0.00022039,0.00005755,-0.00000364,-0.00015808,-0.0000
 2822,0.00021390,0.00020142,-0.00090947,0.01830986,-0.00071759,0.000347
 20,-0.00219609,-0.00091154,0.00054984,0.00131335,0.00022719,-0.0005304
 1,-0.00013836,-0.00132644,-0.00051840,-0.00001497,0.00000429,0.0000100
 0,-0.00058693,-0.00000936,0.00001213,0.00000992,0.00019290,-0.00005660
 ,-0.00023742,0.00012950,0.00041195,0.00191621,-0.05121530,0.06698478,-
 0.14535626,-0.00009600,0.00003670,0.00006202,0.00061369,0.00011808,0.0
 0026345,0.05267261,0.00036887,0.00049282,-0.00032887,-0.00014124,-0.00
 009415,-0.00005529,-0.00003898,0.00000736,0.00002729,-0.00026894,-0.00
 013047,0.00026581,0.00000849,-0.00064947,-0.00140842,-0.00026931,0.000
 12288,0.00025406,0.00023626,-0.00001300,0.00021622,-0.00005094,0.00005
 997,0.00035013,0.00234376,0.00178078,-0.01205470,0.00046912,-0.0010187
 8,-0.00089281,-0.00023238,0.00085179,0.00030223,0.00012986,-0.00065216
 ,0.00009929,0.00055717,-0.00159099,0.00177490,0.00004165,-0.00016792,-
 0.00011061,0.00000433,0.00005117,0.00000241,0.00003777,-0.00020413,-0.
 00012412,0.00075751,0.00069006,-0.00113732,0.06305029,-0.09195417,0.19
 955323,-0.00002363,0.00008463,0.00003610,0.00000924,0.00060371,-0.0001
 1337,-0.06698888,0.09173007,0.00060985,-0.00055731,0.00035754,-0.00019
 706,-0.00006718,-0.00010975,-0.00006597,0.00007167,0.00006532,0.000010
 83,0.00007704,-0.00013035,-0.00097751,-0.00315636,-0.00080517,-0.00034
 873,0.00023160,0.00033072,0.00045334,-0.00000950,0.00026286,0.00008445
 ,0.00050576,-0.00067025,-0.00483574,0.00736762,-0.02355606,-0.00332143
 ,-0.00010891,0.00272595,0.00194567,-0.00058536,-0.00126605,-0.00072268
 ,0.00092374,-0.00003591,0.00084242,0.00449150,0.00377383,-0.00021798,-
 0.00005891,0.00062043,0.00005042,0.00002544,0.00000314,-0.00055220,-0.
 00007316,0.00003535,0.00163260,0.00007924,-0.00053174,-0.12059686,0.17
 771321,-0.42858309,0.00007523,0.00000886,0.00007740,-0.00056798,-0.000
 22283,-0.00035098,0.12669934,-0.18665618,0.44778681\\-0.00059057,0.000
 50251,-0.00020001,0.00027684,0.00013626,-0.00001626,0.00002271,0.00004
 770,-0.00002898,0.00008793,-0.00002539,0.00004634,0.00001838,0.0008952
 6,0.00082727,0.00040820,-0.00015961,-0.00045940,-0.00010995,0.00000921
 ,0.00001143,-0.00000590,0.00001096,-0.00005584,-0.00015492,0.00004218,
 0.00022929,0.00048709,-0.00000277,-0.00003890,-0.00041893,0.00037037,0
 .00007060,0.00030561,-0.00106466,0.00021593,-0.00035906,-0.00079377,-0
 .00038199,-0.00012627,-0.00003622,-0.00003207,-0.00078459,-0.00020611,
 0.00218588,0.00931272,0.00078437,-0.00013213,-0.00382405,-0.00082206,0
 .00167614,-0.00297434,0.00006102,-0.00068268,-0.00360806,-0.00019528,-
 0.00162258,0.00118302,0.00034036,-0.00025561,0.00085413,0.00010566,-0.
 00135644\\\@


 IT TAKES GREATER CHARACTER TO CARRY OFF GOOD FORTUNE THAN BAD.
                     FRENCH PROVERB.
 Job cpu time:       1 days 22 hours 43 minutes 27.2 seconds.
 File lengths (MBytes):  RWF=    507 Int=      0 D2E=      0 Chk=     12 Scr=      1
 Normal termination of Gaussian 09 at Wed Aug 23 14:16:22 2017.
167292.013u 915.339s 3:14:54.10 1438.3%	0+0k 977416+1657096io 37pf+0w
