 Entering Gaussian System, Link 0=/sw/chem/g09/g09
 Initial command:
 /sw/chem/g09/l1.exe "/scratch_local/craigv/TiGraftUltraFine/Gau-45104.inp" -scrdir="/scratch_local/craigv/TiGraftUltraFine/"
 Entering Link 1 = /sw/chem/g09/l1.exe PID=     45105.
  
 Copyright (c) 1988,1990,1992,1993,1995,1998,2003,2009,2013,
            Gaussian, Inc.  All Rights Reserved.
  
 This is part of the Gaussian(R) 09 program.  It is based on
 the Gaussian(R) 03 system (copyright 2003, Gaussian, Inc.),
 the Gaussian(R) 98 system (copyright 1998, Gaussian, Inc.),
 the Gaussian(R) 94 system (copyright 1995, Gaussian, Inc.),
 the Gaussian 92(TM) system (copyright 1992, Gaussian, Inc.),
 the Gaussian 90(TM) system (copyright 1990, Gaussian, Inc.),
 the Gaussian 88(TM) system (copyright 1988, Gaussian, Inc.),
 the Gaussian 86(TM) system (copyright 1986, Carnegie Mellon
 University), and the Gaussian 82(TM) system (copyright 1983,
 Carnegie Mellon University). Gaussian is a federally registered
 trademark of Gaussian, Inc.
  
 This software contains proprietary and confidential information,
 including trade secrets, belonging to Gaussian, Inc.
  
 This software is provided under written license and may be
 used, copied, transmitted, or stored only in accord with that
 written license.
  
 The following legend is applicable only to US Government
 contracts under FAR:
  
                    RESTRICTED RIGHTS LEGEND
  
 Use, reproduction and disclosure by the US Government is
 subject to restrictions as set forth in subparagraphs (a)
 and (c) of the Commercial Computer Software - Restricted
 Rights clause in FAR 52.227-19.
  
 Gaussian, Inc.
 340 Quinnipiac St., Bldg. 40, Wallingford CT 06492
  
  
 ---------------------------------------------------------------
 Warning -- This program may not be used in any manner that
 competes with the business of Gaussian, Inc. or will provide
 assistance to any competitor of Gaussian, Inc.  The licensee
 of this program is prohibited from giving any competitor of
 Gaussian, Inc. access to this program.  By using this program,
 the user acknowledges that Gaussian, Inc. is engaged in the
 business of creating and licensing software in the field of
 computational chemistry and represents and warrants to the
 licensee that it is not a competitor of Gaussian, Inc. and that
 it will not use this program in any manner prohibited above.
 ---------------------------------------------------------------
  

 Cite this work as:
 Gaussian 09, Revision D.01,
 M. J. Frisch, G. W. Trucks, H. B. Schlegel, G. E. Scuseria, 
 M. A. Robb, J. R. Cheeseman, G. Scalmani, V. Barone, B. Mennucci, 
 G. A. Petersson, H. Nakatsuji, M. Caricato, X. Li, H. P. Hratchian, 
 A. F. Izmaylov, J. Bloino, G. Zheng, J. L. Sonnenberg, M. Hada, 
 M. Ehara, K. Toyota, R. Fukuda, J. Hasegawa, M. Ishida, T. Nakajima, 
 Y. Honda, O. Kitao, H. Nakai, T. Vreven, J. A. Montgomery, Jr., 
 J. E. Peralta, F. Ogliaro, M. Bearpark, J. J. Heyd, E. Brothers, 
 K. N. Kudin, V. N. Staroverov, T. Keith, R. Kobayashi, J. Normand, 
 K. Raghavachari, A. Rendell, J. C. Burant, S. S. Iyengar, J. Tomasi, 
 M. Cossi, N. Rega, J. M. Millam, M. Klene, J. E. Knox, J. B. Cross, 
 V. Bakken, C. Adamo, J. Jaramillo, R. Gomperts, R. E. Stratmann, 
 O. Yazyev, A. J. Austin, R. Cammi, C. Pomelli, J. W. Ochterski, 
 R. L. Martin, K. Morokuma, V. G. Zakrzewski, G. A. Voth, 
 P. Salvador, J. J. Dannenberg, S. Dapprich, A. D. Daniels, 
 O. Farkas, J. B. Foresman, J. V. Ortiz, J. Cioslowski, 
 and D. J. Fox, Gaussian, Inc., Wallingford CT, 2013.
 
 ******************************************
 Gaussian 09:  ES64L-G09RevD.01 24-Apr-2013
                23-Aug-2017 
 ******************************************
 %nprocshared=24
 Will use up to   24 processors via shared memory.
 ----------------------------------------------------------------------
 #p wb97xd/gen nosymm punch(derivatives) freq temp=373.15 int=grid=ultr
 afine
 ----------------------------------------------------------------------
 1/10=4,30=1,38=1,112=373150/1,3;
 2/12=2,15=1,17=6,18=5,40=1/2;
 3/5=7,11=2,16=1,25=1,30=1,71=2,74=-58,75=-5,140=1/1,2,3;
 4//1;
 5/5=2,38=5,98=1/2;
 8/6=4,10=90,11=11/1;
 11/6=1,8=1,9=11,15=111,16=1,31=1/1,2,10;
 10/6=1,31=1/2;
 6/7=2,8=2,9=2,10=2,18=1,28=1/1;
 7/8=1,10=1,25=1,30=1/1,2,3,16;
 1/10=4,30=1/3;
 99/10=4/99;
 Leave Link    1 at Wed Aug 23 11:00:42 2017, MaxMem=           0 cpu:         2.4
 (Enter /sw/chem/g09/l101.exe)
 ---------------
 TiCl4 on silica
 ---------------
 Symbolic Z-matrix:
 Charge =  0 Multiplicity = 1
 Ti                    2.46112  -0.85294   0.20616 
 Cl                    4.3039   -0.07513   1.1212 
 Cl                    2.97804  -2.19195  -1.43277 
 Cl                    1.27068  -1.82388   1.75413 
 Ti                   -2.31249  -1.01049  -0.10115 
 Cl                   -0.86057  -1.83502  -1.52814 
 Cl                   -4.22522  -0.7394   -1.10874 
 Cl                   -2.57464  -2.33548   1.61604 
 Si                   -1.56963   2.20361   0.60239 
 O                     0.0671    2.44868   0.6744 
 Si                    1.25714   2.19665  -0.41598 
 O                     1.6348    0.56847  -0.37777 
 O                    -1.74607   0.54547   0.43966 
 O(Iso=10000000)       0.57175   2.62322  -1.84629 
 H(Iso=10000000)       1.12155   2.65121  -2.62664 
 O(Iso=10000000)       2.66727   3.00393  -0.19149 
 O(Iso=10000000)      -2.26519   2.96319  -0.65893 
 O(Iso=10000000)      -2.34256   2.69866   1.94634 
 H(Iso=10000000)       3.30297   2.57558   0.38107 
 H(Iso=10000000)      -1.68479   3.1174   -1.41049 
 H(Iso=10000000)      -2.06647   2.31509   2.77728 
 
 NAtoms=     21 NQM=       21 NQMF=       0 NMMI=      0 NMMIF=      0
                NMic=       0 NMicF=      0.
                    Isotopes and Nuclear Properties:
 (Nuclear quadrupole moments (NQMom) in fm**2, nuclear magnetic moments (NMagM)
  in nuclear magnetons)

  Atom         1           2           3           4           5           6           7           8           9          10
 IAtWgt=          48          35          35          35          48          35          35          35          28          16
 AtmWgt=  47.9479467  34.9688527  34.9688527  34.9688527  47.9479467  34.9688527  34.9688527  34.9688527  27.9769284  15.9949146
 NucSpn=           0           3           3           3           0           3           3           3           0           0
 AtZEff=   0.0000000   0.0000000   0.0000000   0.0000000   0.0000000   0.0000000   0.0000000   0.0000000   0.0000000   0.0000000
 NQMom=    0.0000000  -8.1650000  -8.1650000  -8.1650000   0.0000000  -8.1650000  -8.1650000  -8.1650000   0.0000000   0.0000000
 NMagM=    0.0000000   0.8218740   0.8218740   0.8218740   0.0000000   0.8218740   0.8218740   0.8218740   0.0000000   0.0000000
 AtZNuc=  22.0000000  17.0000000  17.0000000  17.0000000  22.0000000  17.0000000  17.0000000  17.0000000  14.0000000   8.0000000

  Atom        11          12          13          14          15          16          17          18          19          20
 IAtWgt=          28          16          16    10000000    10000000    10000000    10000000    10000000    10000000    10000000
 AtmWgt=  27.9769284  15.9949146  15.9949146************************************************************************************
 NucSpn=           0           0           0           0           0           0           0           0           0           0
 AtZEff=   0.0000000   0.0000000   0.0000000   0.0000000   0.0000000   0.0000000   0.0000000   0.0000000   0.0000000   0.0000000
 NQMom=    0.0000000   0.0000000   0.0000000   0.0000000   0.0000000   0.0000000   0.0000000   0.0000000   0.0000000   0.0000000
 NMagM=    0.0000000   0.0000000   0.0000000   0.0000000   0.0000000   0.0000000   0.0000000   0.0000000   0.0000000   0.0000000
 AtZNuc=  14.0000000   8.0000000   8.0000000   8.0000000   1.0000000   8.0000000   8.0000000   8.0000000   1.0000000   1.0000000

  Atom        21
 IAtWgt=    10000000
 AtmWgt=************
 NucSpn=           0
 AtZEff=   0.0000000
 NQMom=    0.0000000
 NMagM=    0.0000000
 AtZNuc=   1.0000000
 Leave Link  101 at Wed Aug 23 11:00:43 2017, MaxMem=    33554432 cpu:         3.9
 (Enter /sw/chem/g09/l103.exe)

 GradGradGradGradGradGradGradGradGradGradGradGradGradGradGradGradGradGrad
 Berny optimization.
 Initialization pass.
 Trust Radius=3.00D-01 FncErr=1.00D-07 GrdErr=1.00D-07
 Number of steps in this run=      2 maximum allowed number of steps=      2.
 GradGradGradGradGradGradGradGradGradGradGradGradGradGradGradGradGradGrad

 Leave Link  103 at Wed Aug 23 11:00:43 2017, MaxMem=    33554432 cpu:         0.8
 (Enter /sw/chem/g09/l202.exe)
                          Input orientation:                          
 ---------------------------------------------------------------------
 Center     Atomic      Atomic             Coordinates (Angstroms)
 Number     Number       Type             X           Y           Z
 ---------------------------------------------------------------------
      1         22           0        2.461118   -0.852939    0.206155
      2         17           0        4.303896   -0.075130    1.121202
      3         17           0        2.978039   -2.191951   -1.432767
      4         17           0        1.270682   -1.823881    1.754128
      5         22           0       -2.312491   -1.010489   -0.101147
      6         17           0       -0.860574   -1.835022   -1.528142
      7         17           0       -4.225219   -0.739403   -1.108739
      8         17           0       -2.574640   -2.335482    1.616039
      9         14           0       -1.569630    2.203606    0.602386
     10          8           0        0.067104    2.448676    0.674399
     11         14           0        1.257138    2.196647   -0.415983
     12          8           0        1.634798    0.568472   -0.377767
     13          8           0       -1.746067    0.545468    0.439655
     14          8           0        0.571746    2.623215   -1.846287
     15          1           0        1.121545    2.651206   -2.626643
     16          8           0        2.667272    3.003925   -0.191489
     17          8           0       -2.265191    2.963191   -0.658934
     18          8           0       -2.342562    2.698658    1.946338
     19          1           0        3.302969    2.575579    0.381072
     20          1           0       -1.684793    3.117403   -1.410487
     21          1           0       -2.066469    2.315089    2.777277
 ---------------------------------------------------------------------
                    Distance matrix (angstroms):
                    1          2          3          4          5
     1  Ti   0.000000
     2  Cl   2.199575   0.000000
     3  Cl   2.178583   3.572336   0.000000
     4  Cl   2.180845   3.557965   3.634122   0.000000
     5  Ti   4.786084   6.793056   5.582004   4.116161   0.000000
     6  Cl   3.873746   6.065311   3.856351   3.913524   2.196414
     7  Cl   6.815346   8.840797   7.355394   6.291028   2.178820
     8  Cl   5.435491   7.257294   6.336250   3.881663   2.184733
     9  Si   5.074091   6.321401   6.644100   5.061080   3.373012
    10  O    4.105023   4.951731   5.869336   4.568277   4.269633
    11  Si   3.337154   4.099591   4.822359   4.568830   4.809064
    12  O    1.744758   3.128133   3.246114   3.225044   4.260367
    13  O    4.439648   6.119779   5.772054   4.054926   1.741926
    14  O    4.457117   5.478686   5.398802   5.764387   4.956626
    15  H    4.700876   5.621975   5.322413   6.264168   5.619497
    16  O    3.882785   3.725893   5.351119   5.389211   6.397009
    17  O    6.135896   7.453401   7.393630   6.421941   4.012916
    18  O    6.222332   7.249148   7.977794   5.791877   4.236847
    19  H    3.534692   2.928465   5.111256   5.036936   6.680255
    20  H    5.963701   7.243350   7.066239   6.570077   4.375828
    21  H    6.094761   7.002662   7.967744   5.414285   4.405147
                    6          7          8          9         10
     6  Cl   0.000000
     7  Cl   3.563301   0.000000
     8  Cl   3.615848   3.563186   0.000000
     9  Si   4.620869   4.317569   4.758241   0.000000
    10  O    4.905287   5.636263   5.545599   1.656546   0.000000
    11  Si   4.687852   6.257519   6.273104   3.004620   1.633595
    12  O    3.650620   6.048525   5.488860   3.728635   2.664561
    13  O    3.212951   3.192900   3.220293   1.675420   2.639109
    14  O    4.693467   5.904409   6.817340   3.279872   2.576623
    15  H    5.026106   6.510618   7.518590   4.227221   3.471274
    16  O    6.135776   7.896853   7.697666   4.384300   2.796236
    17  O    5.074576   4.213459   5.774703   1.628405   2.735343
    18  O    5.901064   4.969724   5.050299   1.627485   2.736204
    19  H    6.358741   8.359561   7.758218   4.891785   3.251610
    20  H    5.021921   4.628150   6.299654   2.213582   2.804120
    21  H    6.100347   5.393630   4.820220   2.233703   2.998679
                   11         12         13         14         15
    11  Si   0.000000
    12  O    1.671838   0.000000
    13  O    3.532386   3.478355   0.000000
    14  O    1.642404   2.740182   3.861971   0.000000
    15  H    2.260979   3.107837   4.696756   0.954996   0.000000
    16  O    1.640297   2.651817   5.091160   2.697133   2.905797
    17  O    3.612951   4.585155   2.705877   3.094124   3.929274
    18  O    4.334791   5.075288   2.694833   4.783606   5.737111
    19  H    2.228073   2.717924   5.442201   3.524624   3.716272
    20  H    3.239103   4.310829   3.168853   2.350768   3.093850
    21  H    4.610564   5.167625   2.949355   5.332210   6.283212
                   16         17         18         19         20
    16  O    0.000000
    17  O    4.954731   0.000000
    18  O    5.455449   2.619810   0.000000
    19  H    0.956774   5.677699   5.859797   0.000000
    20  H    4.520985   0.962016   3.446198   5.327385   0.000000
    21  H    5.629953   3.502438   0.955935   5.885620   4.280976
                   21
    21  H    0.000000
 Symmetry turned off by external request.
 Stoichiometry    Cl6H4O7Si2Ti2
 Framework group  C1[X(Cl6H4O7Si2Ti2)]
 Deg. of freedom    57
 Full point group                 C1      NOp   1
 Rotational constants (GHZ):      0.0000026      0.0000012      0.0000008
 Leave Link  202 at Wed Aug 23 11:00:43 2017, MaxMem=    33554432 cpu:         0.2
 (Enter /sw/chem/g09/l301.exe)
 General basis read from cards:  (5D, 7F)
 Centers:       2      3      4      6      7      8      9     11     10     12
 Centers:      13     14     16     17     18     15     19     20     21
 TZVP
 ****
 Centers:       1      5
 S 8 1.00
     Exponent=  2.1157569025D+05 Coefficients=  2.3318151011D-04
     Exponent=  3.1714945058D+04 Coefficients=  1.8079690851D-03
     Exponent=  7.2175476543D+03 Coefficients=  9.3984311352D-03
     Exponent=  2.0429394247D+03 Coefficients=  3.8156853618D-02
     Exponent=  6.6512896208D+02 Coefficients=  1.2374757197D-01
     Exponent=  2.3874942264D+02 Coefficients=  2.9208551143D-01
     Exponent=  9.2508691001D+01 Coefficients=  4.1226800855D-01
     Exponent=  3.6403919209D+01 Coefficients=  2.1090534061D-01
 S 4 1.00
     Exponent=  2.3272624607D+02 Coefficients= -2.4920140738D-02
     Exponent=  7.1791209711D+01 Coefficients= -1.1746490087D-01
     Exponent=  1.1158534615D+01 Coefficients=  5.6503342318D-01
     Exponent=  4.6548135416D+00 Coefficients=  5.6211101812D-01
 S 2 1.00
     Exponent=  6.8034629174D+00 Coefficients= -2.3011425503D-01
     Exponent=  1.1201076403D+00 Coefficients=  7.2103186735D-01
 S 1 1.00
     Exponent=  4.8080118839D-01 Coefficients=  1.0000000000D+00
 S 1 1.00
     Exponent=  8.5157274977D-02 Coefficients=  1.0000000000D+00
 S 1 1.00
     Exponent=  3.2657477046D-02 Coefficients=  1.0000000000D+00
 P 6 1.00
     Exponent=  1.0631474732D+03 Coefficients=  2.4690839320D-03
     Exponent=  2.5156507061D+02 Coefficients=  1.9773345523D-02
     Exponent=  8.0408554854D+01 Coefficients=  9.0987976672D-02
     Exponent=  2.9768193269D+01 Coefficients=  2.5559900413D-01
     Exponent=  1.1736830556D+01 Coefficients=  4.0489386764D-01
     Exponent=  4.7142375230D+00 Coefficients=  2.3693402558D-01
 P 3 1.00
     Exponent=  1.7796803704D+01 Coefficients= -2.7878639615D-02
     Exponent=  2.4272698680D+00 Coefficients=  5.5672914668D-01
     Exponent=  9.6823445537D-01 Coefficients=  1.0055447350D+00
 P 1 1.00
     Exponent=  3.7056694165D-01 Coefficients=  1.0000000000D+00
 P 1 1.00
     Exponent=  1.0156100000D-01 Coefficients=  1.0000000000D+00
 D 4 1.00
     Exponent=  3.7713384723D+01 Coefficients=  1.1513835092D-02
     Exponent=  1.0692931184D+01 Coefficients=  6.7246343996D-02
     Exponent=  3.6728446990D+00 Coefficients=  2.1484207775D-01
     Exponent=  1.3588590303D+00 Coefficients=  3.8890892779D-01
 D 1 1.00
     Exponent=  4.9213295253D-01 Coefficients=  1.0000000000D+00
 D 1 1.00
     Exponent=  1.6330520653D-01 Coefficients=  1.0000000000D+00
 D 1 1.00
     Exponent=  5.4000000000D-02 Coefficients=  1.0000000000D+00
 F 1 1.00
     Exponent=  5.6200000000D-01 Coefficients=  1.0000000000D+00
 ****
 Ernie: Thresh=  0.10000D-02 Tol=  0.10000D-05 Strict=F.
   423 basis functions,   857 primitive gaussians,   452 cartesian basis functions
   117 alpha electrons      117 beta electrons
       nuclear repulsion energy      3506.9328804568 Hartrees.
 IExCor= 4639 DFT=T Ex+Corr=wB97XD ExCW=0 ScaHFX=  1.000000
 ScaDFX=  1.000000  1.000000  1.000000  1.000000 ScalE2=  1.000000  1.000000
 IRadAn=      5 IRanWt=     -1 IRanGd=            0 ICorTp=0 IEmpDi=121
  HFx wShort=  0.000000 wLong=  0.200000 cFull=  0.222036 cShort=  0.000000 cLong=  0.777964
  DFx wShort=  0.000000 wLong=  0.200000 cFull=  0.000000 cShort=  0.000000 cLong=  1.000000
 NAtoms=   21 NActive=   21 NUniq=   21 SFac= 1.00D+00 NAtFMM=   60 NAOKFM=F Big=F
 Integral buffers will be    131072 words long.
 Raffenetti 2 integral format.
 Two-electron integral symmetry is turned off.
 R6Disp:  Grimme-D2 Dispersion energy=       -0.0183956430 Hartrees.
 Nuclear repulsion after empirical dispersion term =     3506.9144848138 Hartrees.
 Leave Link  301 at Wed Aug 23 11:00:43 2017, MaxMem=    33554432 cpu:         2.5
 (Enter /sw/chem/g09/l302.exe)
 NPDir=0 NMtPBC=     1 NCelOv=     1 NCel=       1 NClECP=     1 NCelD=      1
         NCelK=      1 NCelE2=     1 NClLst=     1 CellRange=     0.0.
 One-electron integrals computed using PRISM.
 PrsmSu:  requested number of processors reduced to:   4 ShMem   1 Linda.
 PrsmSu:  requested number of processors reduced to:  14 ShMem   1 Linda.
 NBasis=   423 RedAO= T EigKep=  1.23D-03  NBF=   423
 NBsUse=   423 1.00D-06 EigRej= -1.00D+00 NBFU=   423
 Precomputing XC quadrature grid using
 IXCGrd= 4 IRadAn=           5 IRanWt=          -1 IRanGd=           0 AccXCQ= 0.00D+00.
 Generated NRdTot=       0 NPtTot=           0 NUsed=           0 NTot=          32
 NSgBfM=   429   429   429   430   430 MxSgAt=    21 MxSgA2=    21.
 Leave Link  302 at Wed Aug 23 11:00:44 2017, MaxMem=    33554432 cpu:        15.9
 (Enter /sw/chem/g09/l303.exe)
 DipDrv:  MaxL=1.
 Leave Link  303 at Wed Aug 23 11:00:45 2017, MaxMem=    33554432 cpu:         3.6
 (Enter /sw/chem/g09/l401.exe)
 ExpMin= 3.27D-02 ExpMax= 2.12D+05 ExpMxC= 2.37D+03 IAcc=3 IRadAn=         5 AccDes= 0.00D+00
 Harris functional with IExCor= 4639 and IRadAn=       5 diagonalized for initial guess.
 HarFok:  IExCor= 4639 AccDes= 0.00D+00 IRadAn=         5 IDoV= 1 UseB2=F ITyADJ=14
 ICtDFT=  3500011 ScaDFX=  1.000000  1.000000  1.000000  1.000000
 CalDSu:  requested number of processors reduced to:  22 ShMem   1 Linda.
 FoFCou: FMM=F IPFlag=           0 FMFlag=      100000 FMFlg1=           0
         NFxFlg=           0 DoJE=T BraDBF=F KetDBF=T FulRan=T
         wScrn=  0.000000 ICntrl=     500 IOpCl=  0 I1Cent=   200000004 NGrid=           0
         NMat0=    1 NMatS0=      1 NMatT0=    0 NMatD0=    1 NMtDS0=    0 NMtDT0=    0
 Symmetry not used in FoFCou.
 CoulSu:  requested number of processors reduced to:  13 ShMem   1 Linda.
 CoulSu:  requested number of processors reduced to:  13 ShMem   1 Linda.
 CoulSu:  requested number of processors reduced to:  16 ShMem   1 Linda.
 CoulSu:  requested number of processors reduced to:  16 ShMem   1 Linda.
 Harris En= -5472.14721119249    
 JPrj=0 DoOrth=F DoCkMO=F.
 Leave Link  401 at Wed Aug 23 11:00:49 2017, MaxMem=    33554432 cpu:        48.1
 (Enter /sw/chem/g09/l502.exe)
 Closed shell SCF:
 Using DIIS extrapolation, IDIIS=  1040.
 Two-electron integral symmetry not used.
 IVT=      645064 IEndB=      645064 NGot=    33554432 MDV=    33130765
 LenX=    33130765 LenY=    32926009
 Requested convergence on RMS density matrix=1.00D-08 within 128 cycles.
 Requested convergence on MAX density matrix=1.00D-06.
 Requested convergence on             energy=1.00D-06.
 No special actions if energy rises.
 Fock matrices will be formed incrementally for  20 cycles.

 Cycle   1  Pass 1  IDiag  1:
 FoFJK:  IHMeth= 1 ICntrl=       0 DoSepK=T KAlg= 0 I1Cent=   0 FoldK=F
 IRaf=         1 NMat=   1 IRICut=       1 DoRegI=T DoRafI=F ISym2E= 0.
 FoFCou: FMM=F IPFlag=           0 FMFlag=      100000 FMFlg1=           0
         NFxFlg=           0 DoJE=T BraDBF=F KetDBF=F FulRan=T
         wScrn=  0.000000 ICntrl=     500 IOpCl=  0 I1Cent=           0 NGrid=           0
         NMat0=    1 NMatS0=      1 NMatT0=    0 NMatD0=    1 NMtDS0=    0 NMtDT0=    0
 Symmetry not used in FoFCou.
 CoulSu:  requested number of processors reduced to:  13 ShMem   1 Linda.
 CoulSu:  requested number of processors reduced to:  13 ShMem   1 Linda.
 CoulSu:  requested number of processors reduced to:  14 ShMem   1 Linda.
 CalDSu:  requested number of processors reduced to:  22 ShMem   1 Linda.
 E= -5567.77649055138    
 DIIS: error= 5.20D-02 at cycle   1 NSaved=   1.
 NSaved= 1 IEnMin= 1 EnMin= -5567.77649055138     IErMin= 1 ErrMin= 5.20D-02
 ErrMax= 5.20D-02  0.00D+00 EMaxC= 1.00D-01 BMatC= 4.68D+00 BMatP= 4.68D+00
 IDIUse=3 WtCom= 4.80D-01 WtEn= 5.20D-01
 Coeff-Com:  0.100D+01
 Coeff-En:   0.100D+01
 Coeff:      0.100D+01
 Gap=     0.533 Goal=   None    Shift=    0.000
 GapD=    0.533 DampG=2.000 DampE=0.250 DampFc=0.5000 IDamp=-1.
 Damping current iteration by 5.00D-01
 RMSDP=5.26D-03 MaxDP=2.65D-01              OVMax= 4.38D-01

 Cycle   2  Pass 1  IDiag  1:
 RMSU=  2.63D-03    CP:  1.00D+00
 CoulSu:  requested number of processors reduced to:  13 ShMem   1 Linda.
 CoulSu:  requested number of processors reduced to:  13 ShMem   1 Linda.
 CoulSu:  requested number of processors reduced to:  14 ShMem   1 Linda.
 CalDSu:  requested number of processors reduced to:  22 ShMem   1 Linda.
 E= -5566.21487792329     Delta-E=        1.561612628093 Rises=F Damp=T
 DIIS: error= 6.32D-02 at cycle   2 NSaved=   2.
 NSaved= 2 IEnMin= 1 EnMin= -5567.77649055138     IErMin= 1 ErrMin= 5.20D-02
 ErrMax= 6.32D-02  0.00D+00 EMaxC= 1.00D-01 BMatC= 2.63D+00 BMatP= 4.68D+00
 IDIUse=3 WtCom= 3.68D-01 WtEn= 6.32D-01
 Coeff-Com:  0.339D+00 0.661D+00
 Coeff-En:   0.758D+00 0.242D+00
 Coeff:      0.604D+00 0.396D+00
 Gap=     0.312 Goal=   None    Shift=    0.000
 RMSDP=2.24D-03 MaxDP=1.24D-01 DE= 1.56D+00 OVMax= 4.38D-01

 Cycle   3  Pass 1  IDiag  1:
 RMSU=  2.21D-03    CP:  1.01D+00  8.99D-01
 CoulSu:  requested number of processors reduced to:  13 ShMem   1 Linda.
 CoulSu:  requested number of processors reduced to:  13 ShMem   1 Linda.
 CoulSu:  requested number of processors reduced to:  14 ShMem   1 Linda.
 CalDSu:  requested number of processors reduced to:  22 ShMem   1 Linda.
 E= -5568.78832226997     Delta-E=       -2.573444346675 Rises=F Damp=F
 DIIS: error= 1.76D-02 at cycle   3 NSaved=   3.
 NSaved= 3 IEnMin= 3 EnMin= -5568.78832226997     IErMin= 3 ErrMin= 1.76D-02
 ErrMax= 1.76D-02  0.00D+00 EMaxC= 1.00D-01 BMatC= 4.62D-01 BMatP= 2.63D+00
 IDIUse=3 WtCom= 8.24D-01 WtEn= 1.76D-01
 Coeff-Com:  0.339D-01 0.263D+00 0.703D+00
 Coeff-En:   0.000D+00 0.534D-02 0.995D+00
 Coeff:      0.279D-01 0.217D+00 0.755D+00
 Gap=     0.279 Goal=   None    Shift=    0.000
 RMSDP=1.40D-03 MaxDP=8.15D-02 DE=-2.57D+00 OVMax= 1.03D-01

 Cycle   4  Pass 1  IDiag  1:
 RMSU=  8.58D-04    CP:  1.01D+00  9.07D-01  5.05D-01
 CoulSu:  requested number of processors reduced to:  13 ShMem   1 Linda.
 CoulSu:  requested number of processors reduced to:  13 ShMem   1 Linda.
 CoulSu:  requested number of processors reduced to:  14 ShMem   1 Linda.
 CalDSu:  requested number of processors reduced to:  22 ShMem   1 Linda.
 E= -5569.06062683477     Delta-E=       -0.272304564802 Rises=F Damp=F
 DIIS: error= 9.72D-03 at cycle   4 NSaved=   4.
 NSaved= 4 IEnMin= 4 EnMin= -5569.06062683477     IErMin= 4 ErrMin= 9.72D-03
 ErrMax= 9.72D-03  0.00D+00 EMaxC= 1.00D-01 BMatC= 6.92D-02 BMatP= 4.62D-01
 IDIUse=3 WtCom= 9.03D-01 WtEn= 9.72D-02
 Coeff-Com:  0.153D-01 0.335D-02 0.276D+00 0.705D+00
 Coeff-En:   0.000D+00 0.000D+00 0.148D+00 0.852D+00
 Coeff:      0.138D-01 0.303D-02 0.264D+00 0.719D+00
 Gap=     0.351 Goal=   None    Shift=    0.000
 RMSDP=5.41D-04 MaxDP=2.92D-02 DE=-2.72D-01 OVMax= 4.20D-02

 Cycle   5  Pass 1  IDiag  1:
 RMSU=  3.19D-04    CP:  1.01D+00  9.09D-01  6.65D-01  7.03D-01
 CoulSu:  requested number of processors reduced to:  13 ShMem   1 Linda.
 CoulSu:  requested number of processors reduced to:  13 ShMem   1 Linda.
 CoulSu:  requested number of processors reduced to:  14 ShMem   1 Linda.
 CalDSu:  requested number of processors reduced to:  22 ShMem   1 Linda.
 E= -5569.10899416984     Delta-E=       -0.048367335068 Rises=F Damp=F
 DIIS: error= 2.91D-03 at cycle   5 NSaved=   5.
 NSaved= 5 IEnMin= 5 EnMin= -5569.10899416984     IErMin= 5 ErrMin= 2.91D-03
 ErrMax= 2.91D-03  0.00D+00 EMaxC= 1.00D-01 BMatC= 8.01D-03 BMatP= 6.92D-02
 IDIUse=3 WtCom= 9.71D-01 WtEn= 2.91D-02
 Coeff-Com:  0.683D-02-0.575D-02 0.129D+00 0.418D+00 0.452D+00
 Coeff-En:   0.000D+00 0.000D+00 0.000D+00 0.498D-01 0.950D+00
 Coeff:      0.663D-02-0.559D-02 0.125D+00 0.407D+00 0.467D+00
 Gap=     0.336 Goal=   None    Shift=    0.000
 RMSDP=1.68D-04 MaxDP=7.63D-03 DE=-4.84D-02 OVMax= 1.54D-02

 Cycle   6  Pass 1  IDiag  1:
 RMSU=  7.64D-05    CP:  1.01D+00  9.18D-01  6.45D-01  8.11D-01  6.66D-01
 CoulSu:  requested number of processors reduced to:  13 ShMem   1 Linda.
 CoulSu:  requested number of processors reduced to:  13 ShMem   1 Linda.
 CoulSu:  requested number of processors reduced to:  14 ShMem   1 Linda.
 CalDSu:  requested number of processors reduced to:  22 ShMem   1 Linda.
 E= -5569.11566900744     Delta-E=       -0.006674837603 Rises=F Damp=F
 DIIS: error= 5.39D-04 at cycle   6 NSaved=   6.
 NSaved= 6 IEnMin= 6 EnMin= -5569.11566900744     IErMin= 6 ErrMin= 5.39D-04
 ErrMax= 5.39D-04  0.00D+00 EMaxC= 1.00D-01 BMatC= 4.66D-04 BMatP= 8.01D-03
 IDIUse=3 WtCom= 9.95D-01 WtEn= 5.39D-03
 Coeff-Com:  0.334D-02-0.780D-02 0.168D-01 0.827D-01 0.187D+00 0.718D+00
 Coeff-En:   0.000D+00 0.000D+00 0.000D+00 0.000D+00 0.000D+00 0.100D+01
 Coeff:      0.332D-02-0.776D-02 0.167D-01 0.823D-01 0.186D+00 0.720D+00
 Gap=     0.335 Goal=   None    Shift=    0.000
 RMSDP=3.67D-05 MaxDP=1.93D-03 DE=-6.67D-03 OVMax= 2.86D-03

 Cycle   7  Pass 1  IDiag  1:
 RMSU=  3.04D-05    CP:  1.01D+00  9.14D-01  6.48D-01  8.22D-01  7.08D-01
                    CP:  9.56D-01
 CoulSu:  requested number of processors reduced to:  13 ShMem   1 Linda.
 CoulSu:  requested number of processors reduced to:  13 ShMem   1 Linda.
 CoulSu:  requested number of processors reduced to:  14 ShMem   1 Linda.
 CalDSu:  requested number of processors reduced to:  22 ShMem   1 Linda.
 E= -5569.11604000576     Delta-E=       -0.000370998319 Rises=F Damp=F
 DIIS: error= 2.46D-04 at cycle   7 NSaved=   7.
 NSaved= 7 IEnMin= 7 EnMin= -5569.11604000576     IErMin= 7 ErrMin= 2.46D-04
 ErrMax= 2.46D-04  0.00D+00 EMaxC= 1.00D-01 BMatC= 4.43D-05 BMatP= 4.66D-04
 IDIUse=3 WtCom= 9.98D-01 WtEn= 2.46D-03
 Coeff-Com:  0.154D-02-0.345D-02-0.246D-02-0.674D-02 0.634D-02 0.164D+00
 Coeff-Com:  0.840D+00
 Coeff-En:   0.000D+00 0.000D+00 0.000D+00 0.000D+00 0.000D+00 0.000D+00
 Coeff-En:   0.100D+01
 Coeff:      0.154D-02-0.344D-02-0.246D-02-0.673D-02 0.632D-02 0.164D+00
 Coeff:      0.841D+00
 Gap=     0.336 Goal=   None    Shift=    0.000
 RMSDP=1.55D-05 MaxDP=5.04D-04 DE=-3.71D-04 OVMax= 1.31D-03

 Cycle   8  Pass 1  IDiag  1:
 RMSU=  8.95D-06    CP:  1.01D+00  9.13D-01  6.49D-01  8.29D-01  7.26D-01
                    CP:  1.06D+00  1.11D+00
 CoulSu:  requested number of processors reduced to:  14 ShMem   1 Linda.
 CoulSu:  requested number of processors reduced to:  13 ShMem   1 Linda.
 CoulSu:  requested number of processors reduced to:  14 ShMem   1 Linda.
 CalDSu:  requested number of processors reduced to:  22 ShMem   1 Linda.
 E= -5569.11608751037     Delta-E=       -0.000047504613 Rises=F Damp=F
 DIIS: error= 1.10D-04 at cycle   8 NSaved=   8.
 NSaved= 8 IEnMin= 8 EnMin= -5569.11608751037     IErMin= 8 ErrMin= 1.10D-04
 ErrMax= 1.10D-04  0.00D+00 EMaxC= 1.00D-01 BMatC= 8.51D-06 BMatP= 4.43D-05
 IDIUse=3 WtCom= 9.99D-01 WtEn= 1.10D-03
 Coeff-Com:  0.636D-03-0.138D-02-0.219D-02-0.981D-02-0.140D-01 0.435D-02
 Coeff-Com:  0.396D+00 0.627D+00
 Coeff-En:   0.000D+00 0.000D+00 0.000D+00 0.000D+00 0.000D+00 0.000D+00
 Coeff-En:   0.000D+00 0.100D+01
 Coeff:      0.635D-03-0.138D-02-0.219D-02-0.980D-02-0.140D-01 0.435D-02
 Coeff:      0.395D+00 0.627D+00
 Gap=     0.336 Goal=   None    Shift=    0.000
 RMSDP=6.85D-06 MaxDP=3.24D-04 DE=-4.75D-05 OVMax= 7.60D-04

 Cycle   9  Pass 1  IDiag  1:
 RMSU=  5.25D-06    CP:  1.01D+00  9.13D-01  6.50D-01  8.31D-01  7.30D-01
                    CP:  1.08D+00  1.21D+00  9.10D-01
 CoulSu:  requested number of processors reduced to:  14 ShMem   1 Linda.
 CoulSu:  requested number of processors reduced to:  13 ShMem   1 Linda.
 CoulSu:  requested number of processors reduced to:  14 ShMem   1 Linda.
 CalDSu:  requested number of processors reduced to:  22 ShMem   1 Linda.
 E= -5569.11609573938     Delta-E=       -0.000008229008 Rises=F Damp=F
 DIIS: error= 6.73D-05 at cycle   9 NSaved=   9.
 NSaved= 9 IEnMin= 9 EnMin= -5569.11609573938     IErMin= 9 ErrMin= 6.73D-05
 ErrMax= 6.73D-05  0.00D+00 EMaxC= 1.00D-01 BMatC= 3.75D-06 BMatP= 8.51D-06
 IDIUse=1 WtCom= 1.00D+00 WtEn= 0.00D+00
 Coeff-Com: -0.117D-04 0.106D-04-0.735D-03-0.461D-02-0.120D-01-0.545D-01
 Coeff-Com: -0.302D-03 0.479D+00 0.593D+00
 Coeff:     -0.117D-04 0.106D-04-0.735D-03-0.461D-02-0.120D-01-0.545D-01
 Coeff:     -0.302D-03 0.479D+00 0.593D+00
 Gap=     0.336 Goal=   None    Shift=    0.000
 RMSDP=4.37D-06 MaxDP=2.15D-04 DE=-8.23D-06 OVMax= 5.55D-04

 Cycle  10  Pass 1  IDiag  1:
 RMSU=  2.24D-06    CP:  1.01D+00  9.13D-01  6.50D-01  8.33D-01  7.31D-01
                    CP:  1.10D+00  1.27D+00  1.18D+00  7.73D-01
 CoulSu:  requested number of processors reduced to:  14 ShMem   1 Linda.
 CoulSu:  requested number of processors reduced to:  13 ShMem   1 Linda.
 CoulSu:  requested number of processors reduced to:  14 ShMem   1 Linda.
 CalDSu:  requested number of processors reduced to:  22 ShMem   1 Linda.
 E= -5569.11610013419     Delta-E=       -0.000004394811 Rises=F Damp=F
 DIIS: error= 2.53D-05 at cycle  10 NSaved=  10.
 NSaved=10 IEnMin=10 EnMin= -5569.11610013419     IErMin=10 ErrMin= 2.53D-05
 ErrMax= 2.53D-05  0.00D+00 EMaxC= 1.00D-01 BMatC= 3.87D-07 BMatP= 3.75D-06
 IDIUse=1 WtCom= 1.00D+00 WtEn= 0.00D+00
 Coeff-Com: -0.150D-03 0.277D-03-0.252D-03-0.993D-03-0.370D-02-0.275D-01
 Coeff-Com: -0.665D-01 0.132D+00 0.298D+00 0.669D+00
 Coeff:     -0.150D-03 0.277D-03-0.252D-03-0.993D-03-0.370D-02-0.275D-01
 Coeff:     -0.665D-01 0.132D+00 0.298D+00 0.669D+00
 Gap=     0.336 Goal=   None    Shift=    0.000
 RMSDP=1.60D-06 MaxDP=8.60D-05 DE=-4.39D-06 OVMax= 2.13D-04

 Cycle  11  Pass 1  IDiag  1:
 RMSU=  8.74D-07    CP:  1.01D+00  9.13D-01  6.50D-01  8.33D-01  7.31D-01
                    CP:  1.10D+00  1.29D+00  1.23D+00  9.28D-01  1.06D+00
 CoulSu:  requested number of processors reduced to:  14 ShMem   1 Linda.
 CoulSu:  requested number of processors reduced to:  13 ShMem   1 Linda.
 CoulSu:  requested number of processors reduced to:  14 ShMem   1 Linda.
 CalDSu:  requested number of processors reduced to:  22 ShMem   1 Linda.
 E= -5569.11610068851     Delta-E=       -0.000000554322 Rises=F Damp=F
 DIIS: error= 1.12D-05 at cycle  11 NSaved=  11.
 NSaved=11 IEnMin=11 EnMin= -5569.11610068851     IErMin=11 ErrMin= 1.12D-05
 ErrMax= 1.12D-05  0.00D+00 EMaxC= 1.00D-01 BMatC= 7.41D-08 BMatP= 3.87D-07
 IDIUse=1 WtCom= 1.00D+00 WtEn= 0.00D+00
 Coeff-Com: -0.845D-04 0.138D-03-0.125D-03 0.425D-03 0.116D-02 0.204D-02
 Coeff-Com: -0.189D-01-0.587D-01-0.335D-01 0.221D+00 0.886D+00
 Coeff:     -0.845D-04 0.138D-03-0.125D-03 0.425D-03 0.116D-02 0.204D-02
 Coeff:     -0.189D-01-0.587D-01-0.335D-01 0.221D+00 0.886D+00
 Gap=     0.336 Goal=   None    Shift=    0.000
 RMSDP=8.43D-07 MaxDP=2.94D-05 DE=-5.54D-07 OVMax= 1.04D-04

 Cycle  12  Pass 1  IDiag  1:
 RMSU=  3.44D-07    CP:  1.01D+00  9.13D-01  6.50D-01  8.33D-01  7.32D-01
                    CP:  1.10D+00  1.29D+00  1.27D+00  9.89D-01  1.28D+00
                    CP:  1.18D+00
 CoulSu:  requested number of processors reduced to:  14 ShMem   1 Linda.
 CoulSu:  requested number of processors reduced to:  13 ShMem   1 Linda.
 CoulSu:  requested number of processors reduced to:  14 ShMem   1 Linda.
 CalDSu:  requested number of processors reduced to:  22 ShMem   1 Linda.
 E= -5569.11610081880     Delta-E=       -0.000000130287 Rises=F Damp=F
 DIIS: error= 2.79D-06 at cycle  12 NSaved=  12.
 NSaved=12 IEnMin=12 EnMin= -5569.11610081880     IErMin=12 ErrMin= 2.79D-06
 ErrMax= 2.79D-06  0.00D+00 EMaxC= 1.00D-01 BMatC= 5.86D-09 BMatP= 7.41D-08
 IDIUse=1 WtCom= 1.00D+00 WtEn= 0.00D+00
 Coeff-Com: -0.104D-04 0.174D-04-0.412D-04 0.957D-04 0.536D-03 0.342D-02
 Coeff-Com:  0.488D-02-0.275D-01-0.446D-01-0.410D-01 0.205D+00 0.900D+00
 Coeff:     -0.104D-04 0.174D-04-0.412D-04 0.957D-04 0.536D-03 0.342D-02
 Coeff:      0.488D-02-0.275D-01-0.446D-01-0.410D-01 0.205D+00 0.900D+00
 Gap=     0.336 Goal=   None    Shift=    0.000
 RMSDP=2.81D-07 MaxDP=7.47D-06 DE=-1.30D-07 OVMax= 3.43D-05

 Cycle  13  Pass 1  IDiag  1:
 RMSU=  1.23D-07    CP:  1.01D+00  9.13D-01  6.50D-01  8.33D-01  7.31D-01
                    CP:  1.11D+00  1.29D+00  1.28D+00  1.00D+00  1.35D+00
                    CP:  1.33D+00  1.08D+00
 CoulSu:  requested number of processors reduced to:  14 ShMem   1 Linda.
 CoulSu:  requested number of processors reduced to:  13 ShMem   1 Linda.
 CoulSu:  requested number of processors reduced to:  14 ShMem   1 Linda.
 CalDSu:  requested number of processors reduced to:  22 ShMem   1 Linda.
 E= -5569.11610083016     Delta-E=       -0.000000011363 Rises=F Damp=F
 DIIS: error= 7.66D-07 at cycle  13 NSaved=  13.
 NSaved=13 IEnMin=13 EnMin= -5569.11610083016     IErMin=13 ErrMin= 7.66D-07
 ErrMax= 7.66D-07  0.00D+00 EMaxC= 1.00D-01 BMatC= 9.63D-10 BMatP= 5.86D-09
 IDIUse=1 WtCom= 1.00D+00 WtEn= 0.00D+00
 Coeff-Com:  0.346D-05-0.374D-05 0.565D-06-0.140D-04 0.583D-04 0.106D-02
 Coeff-Com:  0.368D-02-0.460D-02-0.137D-01-0.402D-01-0.821D-02 0.393D+00
 Coeff-Com:  0.669D+00
 Coeff:      0.346D-05-0.374D-05 0.565D-06-0.140D-04 0.583D-04 0.106D-02
 Coeff:      0.368D-02-0.460D-02-0.137D-01-0.402D-01-0.821D-02 0.393D+00
 Coeff:      0.669D+00
 Gap=     0.336 Goal=   None    Shift=    0.000
 RMSDP=7.23D-08 MaxDP=2.18D-06 DE=-1.14D-08 OVMax= 7.57D-06

 Cycle  14  Pass 1  IDiag  1:
 RMSU=  4.80D-08    CP:  1.01D+00  9.13D-01  6.50D-01  8.33D-01  7.31D-01
                    CP:  1.11D+00  1.29D+00  1.28D+00  1.01D+00  1.36D+00
                    CP:  1.37D+00  1.17D+00  9.78D-01
 CoulSu:  requested number of processors reduced to:  14 ShMem   1 Linda.
 CoulSu:  requested number of processors reduced to:  13 ShMem   1 Linda.
 CoulSu:  requested number of processors reduced to:  14 ShMem   1 Linda.
 CalDSu:  requested number of processors reduced to:  22 ShMem   1 Linda.
 E= -5569.11610083130     Delta-E=       -0.000000001133 Rises=F Damp=F
 DIIS: error= 3.33D-07 at cycle  14 NSaved=  14.
 NSaved=14 IEnMin=14 EnMin= -5569.11610083130     IErMin=14 ErrMin= 3.33D-07
 ErrMax= 3.33D-07  0.00D+00 EMaxC= 1.00D-01 BMatC= 1.12D-10 BMatP= 9.63D-10
 IDIUse=1 WtCom= 1.00D+00 WtEn= 0.00D+00
 Coeff-Com:  0.300D-05-0.380D-05 0.116D-04-0.389D-05-0.360D-04-0.197D-04
 Coeff-Com:  0.351D-03 0.156D-02 0.764D-03-0.792D-02-0.260D-01 0.244D-01
 Coeff-Com:  0.213D+00 0.794D+00
 Coeff:      0.300D-05-0.380D-05 0.116D-04-0.389D-05-0.360D-04-0.197D-04
 Coeff:      0.351D-03 0.156D-02 0.764D-03-0.792D-02-0.260D-01 0.244D-01
 Coeff:      0.213D+00 0.794D+00
 Gap=     0.336 Goal=   None    Shift=    0.000
 RMSDP=2.98D-08 MaxDP=8.63D-07 DE=-1.13D-09 OVMax= 3.77D-06

 Cycle  15  Pass 1  IDiag  1:
 RMSU=  1.78D-08    CP:  1.01D+00  9.13D-01  6.50D-01  8.33D-01  7.31D-01
                    CP:  1.11D+00  1.29D+00  1.28D+00  1.01D+00  1.37D+00
                    CP:  1.38D+00  1.21D+00  1.09D+00  1.13D+00
 CoulSu:  requested number of processors reduced to:  14 ShMem   1 Linda.
 CoulSu:  requested number of processors reduced to:  14 ShMem   1 Linda.
 CoulSu:  requested number of processors reduced to:  14 ShMem   1 Linda.
 CalDSu:  requested number of processors reduced to:  22 ShMem   1 Linda.
 E= -5569.11610083121     Delta-E=        0.000000000089 Rises=F Damp=F
 DIIS: error= 1.73D-07 at cycle  15 NSaved=  15.
 NSaved=15 IEnMin=14 EnMin= -5569.11610083130     IErMin=15 ErrMin= 1.73D-07
 ErrMax= 1.73D-07  0.00D+00 EMaxC= 1.00D-01 BMatC= 2.51D-11 BMatP= 1.12D-10
 IDIUse=1 WtCom= 1.00D+00 WtEn= 0.00D+00
 Coeff-Com:  0.990D-06-0.140D-05 0.679D-05 0.621D-05-0.205D-04-0.152D-03
 Coeff-Com: -0.535D-03 0.117D-02 0.246D-02 0.362D-02-0.741D-02-0.556D-01
 Coeff-Com: -0.352D-01 0.308D+00 0.783D+00
 Coeff:      0.990D-06-0.140D-05 0.679D-05 0.621D-05-0.205D-04-0.152D-03
 Coeff:     -0.535D-03 0.117D-02 0.246D-02 0.362D-02-0.741D-02-0.556D-01
 Coeff:     -0.352D-01 0.308D+00 0.783D+00
 Gap=     0.336 Goal=   None    Shift=    0.000
 RMSDP=1.46D-08 MaxDP=4.44D-07 DE= 8.91D-11 OVMax= 1.82D-06

 Cycle  16  Pass 1  IDiag  1:
 RMSU=  7.54D-09    CP:  1.01D+00  9.13D-01  6.50D-01  8.33D-01  7.31D-01
                    CP:  1.11D+00  1.29D+00  1.28D+00  1.01D+00  1.37D+00
                    CP:  1.38D+00  1.21D+00  1.15D+00  1.30D+00  9.89D-01
 CoulSu:  requested number of processors reduced to:  14 ShMem   1 Linda.
 CoulSu:  requested number of processors reduced to:  14 ShMem   1 Linda.
 CoulSu:  requested number of processors reduced to:  14 ShMem   1 Linda.
 CalDSu:  requested number of processors reduced to:  22 ShMem   1 Linda.
 E= -5569.11610083129     Delta-E=       -0.000000000087 Rises=F Damp=F
 DIIS: error= 6.35D-08 at cycle  16 NSaved=  16.
 NSaved=16 IEnMin=14 EnMin= -5569.11610083130     IErMin=16 ErrMin= 6.35D-08
 ErrMax= 6.35D-08  0.00D+00 EMaxC= 1.00D-01 BMatC= 4.01D-12 BMatP= 2.51D-11
 IDIUse=1 WtCom= 1.00D+00 WtEn= 0.00D+00
 Coeff-Com:  0.764D-07-0.161D-06 0.146D-05 0.345D-05-0.524D-05-0.578D-04
 Coeff-Com: -0.273D-03 0.243D-03 0.874D-03 0.273D-02 0.102D-02-0.277D-01
 Coeff-Com: -0.475D-01 0.352D-02 0.335D+00 0.732D+00
 Coeff:      0.764D-07-0.161D-06 0.146D-05 0.345D-05-0.524D-05-0.578D-04
 Coeff:     -0.273D-03 0.243D-03 0.874D-03 0.273D-02 0.102D-02-0.277D-01
 Coeff:     -0.475D-01 0.352D-02 0.335D+00 0.732D+00
 Gap=     0.336 Goal=   None    Shift=    0.000
 RMSDP=5.91D-09 MaxDP=1.98D-07 DE=-8.73D-11 OVMax= 7.19D-07

 SCF Done:  E(RwB97XD) =  -5569.11610083     A.U. after   16 cycles
            NFock= 16  Conv=0.59D-08     -V/T= 2.0023
 KE= 5.556270896552D+03 PE=-2.022791538352D+04 EE= 5.595613901323D+03
 Leave Link  502 at Wed Aug 23 11:04:11 2017, MaxMem=    33554432 cpu:      3201.1
 (Enter /sw/chem/g09/l801.exe)
 DoSCS=F DFT=T ScalE2(SS,OS)=  1.000000  1.000000
 Range of M.O.s used for correlation:     1   423
 NBasis=   423 NAE=   117 NBE=   117 NFC=     0 NFV=     0
 NROrb=    423 NOA=   117 NOB=   117 NVA=   306 NVB=   306
 Leave Link  801 at Wed Aug 23 11:04:11 2017, MaxMem=    33554432 cpu:         1.0
 (Enter /sw/chem/g09/l1101.exe)
 Using compressed storage, NAtomX=    21.
 Will process     22 centers per pass.
 PrsmSu:  requested number of processors reduced to:   3 ShMem   1 Linda.
 PrsmSu:  requested number of processors reduced to:   3 ShMem   1 Linda.
 R6Disp: Adding Grimme-D2 dispersion energy 1st derivatives to the gradient.
 Leave Link 1101 at Wed Aug 23 11:04:13 2017, MaxMem=    33554432 cpu:        14.2
 (Enter /sw/chem/g09/l1102.exe)
 Symmetrizing basis deriv contribution to polar:
 IMax=3 JMax=2 DiffMx= 0.00D+00
 Leave Link 1102 at Wed Aug 23 11:04:13 2017, MaxMem=    33554432 cpu:         3.9
 (Enter /sw/chem/g09/l1110.exe)
 Forming Gx(P) for the SCF density, NAtomX=    21.
 Integral derivatives from FoFJK, PRISM(SPDF).
 Do as many integral derivatives as possible in FoFJK.
 G2DrvN: MDV=      33554160.
 G2DrvN: will do     1 centers at a time, making   22 passes.
 Estimated number of processors is:    7
 G2DrvN:  IPasSy=1 do centers    0 through    0.
 Calling FoFCou, ICntrl=  3107 FMM=F I1Cent=   0 AccDes= 0.00D+00.
 FoFJK:  IHMeth= 1 ICntrl=    3107 DoSepK=T KAlg= 0 I1Cent=   0 FoldK=F
 IRaf=         1 NMat=   1 IRICut=       1 DoRegI=T DoRafI=F ISym2E= 0.
 FoFCou: FMM=F IPFlag=           0 FMFlag=      100000 FMFlg1=           0
         NFxFlg=           0 DoJE=F BraDBF=F KetDBF=F FulRan=T
         wScrn=  0.000000 ICntrl=    3507 IOpCl=  0 I1Cent=           0 NGrid=           0
         NMat0=    1 NMatS0=      1 NMatT0=    0 NMatD0=    1 NMtDS0=    0 NMtDT0=    0
 Symmetry not used in FoFCou.
 CoulSu:  requested number of processors reduced to:   7 ShMem   1 Linda.
 CoulSu:  requested number of processors reduced to:   7 ShMem   1 Linda.
 CalDSu:  requested number of processors reduced to:  15 ShMem   1 Linda.
 G2DrvN:  IPasSy=1 do centers    1 through    1.
 Calling FoFCou, ICntrl=  3107 FMM=F I1Cent=   0 AccDes= 0.00D+00.
 CoulSu:  requested number of processors reduced to:   7 ShMem   1 Linda.
 CoulSu:  requested number of processors reduced to:   7 ShMem   1 Linda.
 CalDSu:  requested number of processors reduced to:  15 ShMem   1 Linda.
 G2DrvN:  IPasSy=1 do centers    2 through    2.
 Calling FoFCou, ICntrl=  3107 FMM=F I1Cent=   0 AccDes= 0.00D+00.
 CoulSu:  requested number of processors reduced to:   7 ShMem   1 Linda.
 CoulSu:  requested number of processors reduced to:   7 ShMem   1 Linda.
 CalDSu:  requested number of processors reduced to:  15 ShMem   1 Linda.
 G2DrvN:  IPasSy=1 do centers    3 through    3.
 Calling FoFCou, ICntrl=  3107 FMM=F I1Cent=   0 AccDes= 0.00D+00.
 CoulSu:  requested number of processors reduced to:   7 ShMem   1 Linda.
 CoulSu:  requested number of processors reduced to:   7 ShMem   1 Linda.
 CalDSu:  requested number of processors reduced to:  15 ShMem   1 Linda.
 G2DrvN:  IPasSy=1 do centers    4 through    4.
 Calling FoFCou, ICntrl=  3107 FMM=F I1Cent=   0 AccDes= 0.00D+00.
 CoulSu:  requested number of processors reduced to:   7 ShMem   1 Linda.
 CoulSu:  requested number of processors reduced to:   7 ShMem   1 Linda.
 CalDSu:  requested number of processors reduced to:  15 ShMem   1 Linda.
 G2DrvN:  IPasSy=1 do centers    5 through    5.
 Calling FoFCou, ICntrl=  3107 FMM=F I1Cent=   0 AccDes= 0.00D+00.
 CoulSu:  requested number of processors reduced to:   7 ShMem   1 Linda.
 CoulSu:  requested number of processors reduced to:   7 ShMem   1 Linda.
 CalDSu:  requested number of processors reduced to:  15 ShMem   1 Linda.
 G2DrvN:  IPasSy=1 do centers    6 through    6.
 Calling FoFCou, ICntrl=  3107 FMM=F I1Cent=   0 AccDes= 0.00D+00.
 CoulSu:  requested number of processors reduced to:   7 ShMem   1 Linda.
 CoulSu:  requested number of processors reduced to:   7 ShMem   1 Linda.
 CalDSu:  requested number of processors reduced to:  15 ShMem   1 Linda.
 G2DrvN:  IPasSy=1 do centers    7 through    7.
 Calling FoFCou, ICntrl=  3107 FMM=F I1Cent=   0 AccDes= 0.00D+00.
 CoulSu:  requested number of processors reduced to:   7 ShMem   1 Linda.
 CoulSu:  requested number of processors reduced to:   7 ShMem   1 Linda.
 CalDSu:  requested number of processors reduced to:  15 ShMem   1 Linda.
 G2DrvN:  IPasSy=1 do centers    8 through    8.
 Calling FoFCou, ICntrl=  3107 FMM=F I1Cent=   0 AccDes= 0.00D+00.
 CoulSu:  requested number of processors reduced to:   7 ShMem   1 Linda.
 CoulSu:  requested number of processors reduced to:   7 ShMem   1 Linda.
 CalDSu:  requested number of processors reduced to:  15 ShMem   1 Linda.
 G2DrvN:  IPasSy=1 do centers    9 through    9.
 Calling FoFCou, ICntrl=  3107 FMM=F I1Cent=   0 AccDes= 0.00D+00.
 CoulSu:  requested number of processors reduced to:   7 ShMem   1 Linda.
 CoulSu:  requested number of processors reduced to:   7 ShMem   1 Linda.
 CalDSu:  requested number of processors reduced to:  15 ShMem   1 Linda.
 G2DrvN:  IPasSy=1 do centers   10 through   10.
 Calling FoFCou, ICntrl=  3107 FMM=F I1Cent=   0 AccDes= 0.00D+00.
 CoulSu:  requested number of processors reduced to:   7 ShMem   1 Linda.
 CoulSu:  requested number of processors reduced to:   7 ShMem   1 Linda.
 CalDSu:  requested number of processors reduced to:  15 ShMem   1 Linda.
 G2DrvN:  IPasSy=1 do centers   11 through   11.
 Calling FoFCou, ICntrl=  3107 FMM=F I1Cent=   0 AccDes= 0.00D+00.
 CoulSu:  requested number of processors reduced to:   7 ShMem   1 Linda.
 CoulSu:  requested number of processors reduced to:   7 ShMem   1 Linda.
 CalDSu:  requested number of processors reduced to:  15 ShMem   1 Linda.
 G2DrvN:  IPasSy=1 do centers   12 through   12.
 Calling FoFCou, ICntrl=  3107 FMM=F I1Cent=   0 AccDes= 0.00D+00.
 CoulSu:  requested number of processors reduced to:   7 ShMem   1 Linda.
 CoulSu:  requested number of processors reduced to:   7 ShMem   1 Linda.
 CalDSu:  requested number of processors reduced to:  15 ShMem   1 Linda.
 G2DrvN:  IPasSy=1 do centers   13 through   13.
 Calling FoFCou, ICntrl=  3107 FMM=F I1Cent=   0 AccDes= 0.00D+00.
 CoulSu:  requested number of processors reduced to:   7 ShMem   1 Linda.
 CoulSu:  requested number of processors reduced to:   7 ShMem   1 Linda.
 CalDSu:  requested number of processors reduced to:  15 ShMem   1 Linda.
 G2DrvN:  IPasSy=1 do centers   14 through   14.
 Calling FoFCou, ICntrl=  3107 FMM=F I1Cent=   0 AccDes= 0.00D+00.
 CoulSu:  requested number of processors reduced to:   7 ShMem   1 Linda.
 CoulSu:  requested number of processors reduced to:   7 ShMem   1 Linda.
 CalDSu:  requested number of processors reduced to:  15 ShMem   1 Linda.
 G2DrvN:  IPasSy=1 do centers   15 through   15.
 Calling FoFCou, ICntrl=  3107 FMM=F I1Cent=   0 AccDes= 0.00D+00.
 CoulSu:  requested number of processors reduced to:   7 ShMem   1 Linda.
 CoulSu:  requested number of processors reduced to:   7 ShMem   1 Linda.
 CalDSu:  requested number of processors reduced to:  15 ShMem   1 Linda.
 G2DrvN:  IPasSy=1 do centers   16 through   16.
 Calling FoFCou, ICntrl=  3107 FMM=F I1Cent=   0 AccDes= 0.00D+00.
 CoulSu:  requested number of processors reduced to:   7 ShMem   1 Linda.
 CoulSu:  requested number of processors reduced to:   7 ShMem   1 Linda.
 CalDSu:  requested number of processors reduced to:  15 ShMem   1 Linda.
 G2DrvN:  IPasSy=1 do centers   17 through   17.
 Calling FoFCou, ICntrl=  3107 FMM=F I1Cent=   0 AccDes= 0.00D+00.
 CoulSu:  requested number of processors reduced to:   7 ShMem   1 Linda.
 CoulSu:  requested number of processors reduced to:   7 ShMem   1 Linda.
 CalDSu:  requested number of processors reduced to:  15 ShMem   1 Linda.
 G2DrvN:  IPasSy=1 do centers   18 through   18.
 Calling FoFCou, ICntrl=  3107 FMM=F I1Cent=   0 AccDes= 0.00D+00.
 CoulSu:  requested number of processors reduced to:   7 ShMem   1 Linda.
 CoulSu:  requested number of processors reduced to:   7 ShMem   1 Linda.
 CalDSu:  requested number of processors reduced to:  15 ShMem   1 Linda.
 G2DrvN:  IPasSy=1 do centers   19 through   19.
 Calling FoFCou, ICntrl=  3107 FMM=F I1Cent=   0 AccDes= 0.00D+00.
 CoulSu:  requested number of processors reduced to:   7 ShMem   1 Linda.
 CoulSu:  requested number of processors reduced to:   7 ShMem   1 Linda.
 CalDSu:  requested number of processors reduced to:  15 ShMem   1 Linda.
 G2DrvN:  IPasSy=1 do centers   20 through   20.
 Calling FoFCou, ICntrl=  3107 FMM=F I1Cent=   0 AccDes= 0.00D+00.
 CoulSu:  requested number of processors reduced to:   7 ShMem   1 Linda.
 CoulSu:  requested number of processors reduced to:   7 ShMem   1 Linda.
 CalDSu:  requested number of processors reduced to:  15 ShMem   1 Linda.
 G2DrvN:  IPasSy=1 do centers   21 through   21.
 Calling FoFCou, ICntrl=  3107 FMM=F I1Cent=   0 AccDes= 0.00D+00.
 CoulSu:  requested number of processors reduced to:   7 ShMem   1 Linda.
 CoulSu:  requested number of processors reduced to:   7 ShMem   1 Linda.
 CalDSu:  requested number of processors reduced to:  15 ShMem   1 Linda.
 End of G2Drv F.D. properties file   721 does not exist.
 End of G2Drv F.D. properties file   722 does not exist.
 End of G2Drv F.D. properties file   788 does not exist.
 Leave Link 1110 at Wed Aug 23 11:16:39 2017, MaxMem=    33554432 cpu:      7825.6
 (Enter /sw/chem/g09/l1002.exe)
 Minotr:  Closed shell wavefunction.
          IDoAtm=111111111111111111111
          Direct CPHF calculation.
          Differentiating once with respect to electric field.
                with respect to dipole field.
          Differentiating once with respect to nuclear coordinates.
          Requested convergence is 1.0D-08 RMS, and 1.0D-07 maximum.
          Secondary convergence is 1.0D-12 RMS, and 1.0D-12 maximum.
          NewPWx=T KeepS1=F KeepF1=F KeepIn=T MapXYZ=F SortEE=F KeepMc=T.
          MDV=      33553795 using IRadAn=       1.
 Generate precomputed XC quadrature information.
          Solving linear equations simultaneously, MaxMat=       0.
 Estimated number of processors is:   14
 FoF2E skips out because all densities are zero.
 CalDSu exits because no D1Ps are significant.
 FoF2E skips out because all densities are zero.
 CalDSu exits because no D1Ps are significant.
 FoF2E skips out because all densities are zero.
 CalDSu exits because no D1Ps are significant.
 FoFJK:  IHMeth= 1 ICntrl=       0 DoSepK=T KAlg= 0 I1Cent=   0 FoldK=F
 IRaf=         1 NMat=   1 IRICut=       1 DoRegI=T DoRafI=F ISym2E= 0.
 FoFCou: FMM=F IPFlag=           0 FMFlag=      100000 FMFlg1=           0
         NFxFlg=           0 DoJE=T BraDBF=F KetDBF=F FulRan=T
         wScrn=  0.000000 ICntrl=     500 IOpCl=  0 I1Cent=           0 NGrid=           0
         NMat0=    1 NMatS0=      1 NMatT0=    0 NMatD0=    1 NMtDS0=    0 NMtDT0=    0
 Symmetry not used in FoFCou.
 CoulSu:  requested number of processors reduced to:  13 ShMem   1 Linda.
 CoulSu:  requested number of processors reduced to:  13 ShMem   1 Linda.
 CoulSu:  requested number of processors reduced to:  14 ShMem   1 Linda.
 CalDSu:  requested number of processors reduced to:  21 ShMem   1 Linda.
 CoulSu:  requested number of processors reduced to:  13 ShMem   1 Linda.
 CoulSu:  requested number of processors reduced to:  13 ShMem   1 Linda.
 CoulSu:  requested number of processors reduced to:  14 ShMem   1 Linda.
 CalDSu:  requested number of processors reduced to:  21 ShMem   1 Linda.
 CoulSu:  requested number of processors reduced to:  13 ShMem   1 Linda.
 CoulSu:  requested number of processors reduced to:  13 ShMem   1 Linda.
 CoulSu:  requested number of processors reduced to:  14 ShMem   1 Linda.
 CalDSu:  requested number of processors reduced to:  21 ShMem   1 Linda.
 CoulSu:  requested number of processors reduced to:  13 ShMem   1 Linda.
 CoulSu:  requested number of processors reduced to:  13 ShMem   1 Linda.
 CoulSu:  requested number of processors reduced to:  14 ShMem   1 Linda.
 CalDSu:  requested number of processors reduced to:  21 ShMem   1 Linda.
 CoulSu:  requested number of processors reduced to:  13 ShMem   1 Linda.
 CoulSu:  requested number of processors reduced to:  13 ShMem   1 Linda.
 CoulSu:  requested number of processors reduced to:  14 ShMem   1 Linda.
 CalDSu:  requested number of processors reduced to:  21 ShMem   1 Linda.
 CoulSu:  requested number of processors reduced to:  13 ShMem   1 Linda.
 CoulSu:  requested number of processors reduced to:  13 ShMem   1 Linda.
 CoulSu:  requested number of processors reduced to:  14 ShMem   1 Linda.
 CalDSu:  requested number of processors reduced to:  21 ShMem   1 Linda.
 CoulSu:  requested number of processors reduced to:  13 ShMem   1 Linda.
 CoulSu:  requested number of processors reduced to:  13 ShMem   1 Linda.
 CoulSu:  requested number of processors reduced to:  14 ShMem   1 Linda.
 CalDSu:  requested number of processors reduced to:  21 ShMem   1 Linda.
 CoulSu:  requested number of processors reduced to:  13 ShMem   1 Linda.
 CoulSu:  requested number of processors reduced to:  13 ShMem   1 Linda.
 CoulSu:  requested number of processors reduced to:  14 ShMem   1 Linda.
 CalDSu:  requested number of processors reduced to:  21 ShMem   1 Linda.
 CoulSu:  requested number of processors reduced to:  13 ShMem   1 Linda.
 CoulSu:  requested number of processors reduced to:  13 ShMem   1 Linda.
 CoulSu:  requested number of processors reduced to:  14 ShMem   1 Linda.
 CalDSu:  requested number of processors reduced to:  21 ShMem   1 Linda.
 CoulSu:  requested number of processors reduced to:  13 ShMem   1 Linda.
 CoulSu:  requested number of processors reduced to:  13 ShMem   1 Linda.
 CoulSu:  requested number of processors reduced to:  14 ShMem   1 Linda.
 CalDSu:  requested number of processors reduced to:  21 ShMem   1 Linda.
 CoulSu:  requested number of processors reduced to:  13 ShMem   1 Linda.
 CoulSu:  requested number of processors reduced to:  13 ShMem   1 Linda.
 CoulSu:  requested number of processors reduced to:  14 ShMem   1 Linda.
 CalDSu:  requested number of processors reduced to:  21 ShMem   1 Linda.
 CoulSu:  requested number of processors reduced to:  13 ShMem   1 Linda.
 CoulSu:  requested number of processors reduced to:  13 ShMem   1 Linda.
 CoulSu:  requested number of processors reduced to:  14 ShMem   1 Linda.
 CalDSu:  requested number of processors reduced to:  21 ShMem   1 Linda.
 CoulSu:  requested number of processors reduced to:  13 ShMem   1 Linda.
 CoulSu:  requested number of processors reduced to:  13 ShMem   1 Linda.
 CoulSu:  requested number of processors reduced to:  14 ShMem   1 Linda.
 CalDSu:  requested number of processors reduced to:  21 ShMem   1 Linda.
 CoulSu:  requested number of processors reduced to:  13 ShMem   1 Linda.
 CoulSu:  requested number of processors reduced to:  13 ShMem   1 Linda.
 CoulSu:  requested number of processors reduced to:  14 ShMem   1 Linda.
 CalDSu:  requested number of processors reduced to:  21 ShMem   1 Linda.
 CoulSu:  requested number of processors reduced to:  13 ShMem   1 Linda.
 CoulSu:  requested number of processors reduced to:  13 ShMem   1 Linda.
 CoulSu:  requested number of processors reduced to:  14 ShMem   1 Linda.
 CalDSu:  requested number of processors reduced to:  21 ShMem   1 Linda.
 CoulSu:  requested number of processors reduced to:  13 ShMem   1 Linda.
 CoulSu:  requested number of processors reduced to:  13 ShMem   1 Linda.
 CoulSu:  requested number of processors reduced to:  14 ShMem   1 Linda.
 CalDSu:  requested number of processors reduced to:  21 ShMem   1 Linda.
 CoulSu:  requested number of processors reduced to:  13 ShMem   1 Linda.
 CoulSu:  requested number of processors reduced to:  13 ShMem   1 Linda.
 CoulSu:  requested number of processors reduced to:  14 ShMem   1 Linda.
 CalDSu:  requested number of processors reduced to:  21 ShMem   1 Linda.
 CoulSu:  requested number of processors reduced to:  13 ShMem   1 Linda.
 CoulSu:  requested number of processors reduced to:  13 ShMem   1 Linda.
 CoulSu:  requested number of processors reduced to:  14 ShMem   1 Linda.
 CalDSu:  requested number of processors reduced to:  21 ShMem   1 Linda.
 CoulSu:  requested number of processors reduced to:  13 ShMem   1 Linda.
 CoulSu:  requested number of processors reduced to:  13 ShMem   1 Linda.
 CoulSu:  requested number of processors reduced to:  14 ShMem   1 Linda.
 CalDSu:  requested number of processors reduced to:  21 ShMem   1 Linda.
 CoulSu:  requested number of processors reduced to:  13 ShMem   1 Linda.
 CoulSu:  requested number of processors reduced to:  13 ShMem   1 Linda.
 CoulSu:  requested number of processors reduced to:  14 ShMem   1 Linda.
 CalDSu:  requested number of processors reduced to:  21 ShMem   1 Linda.
 CoulSu:  requested number of processors reduced to:  13 ShMem   1 Linda.
 CoulSu:  requested number of processors reduced to:  13 ShMem   1 Linda.
 CoulSu:  requested number of processors reduced to:  14 ShMem   1 Linda.
 CalDSu:  requested number of processors reduced to:  21 ShMem   1 Linda.
 CoulSu:  requested number of processors reduced to:  13 ShMem   1 Linda.
 CoulSu:  requested number of processors reduced to:  13 ShMem   1 Linda.
 CoulSu:  requested number of processors reduced to:  14 ShMem   1 Linda.
 CalDSu:  requested number of processors reduced to:  21 ShMem   1 Linda.
 CoulSu:  requested number of processors reduced to:  13 ShMem   1 Linda.
 CoulSu:  requested number of processors reduced to:  13 ShMem   1 Linda.
 CoulSu:  requested number of processors reduced to:  14 ShMem   1 Linda.
 CalDSu:  requested number of processors reduced to:  21 ShMem   1 Linda.
 CoulSu:  requested number of processors reduced to:  13 ShMem   1 Linda.
 CoulSu:  requested number of processors reduced to:  13 ShMem   1 Linda.
 CoulSu:  requested number of processors reduced to:  14 ShMem   1 Linda.
 CalDSu:  requested number of processors reduced to:  21 ShMem   1 Linda.
 CoulSu:  requested number of processors reduced to:  13 ShMem   1 Linda.
 CoulSu:  requested number of processors reduced to:  13 ShMem   1 Linda.
 CoulSu:  requested number of processors reduced to:  14 ShMem   1 Linda.
 CalDSu:  requested number of processors reduced to:  21 ShMem   1 Linda.
 CoulSu:  requested number of processors reduced to:  13 ShMem   1 Linda.
 CoulSu:  requested number of processors reduced to:  13 ShMem   1 Linda.
 CoulSu:  requested number of processors reduced to:  14 ShMem   1 Linda.
 CalDSu:  requested number of processors reduced to:  21 ShMem   1 Linda.
 CoulSu:  requested number of processors reduced to:  13 ShMem   1 Linda.
 CoulSu:  requested number of processors reduced to:  13 ShMem   1 Linda.
 CoulSu:  requested number of processors reduced to:  14 ShMem   1 Linda.
 CalDSu:  requested number of processors reduced to:  21 ShMem   1 Linda.
 CoulSu:  requested number of processors reduced to:  13 ShMem   1 Linda.
 CoulSu:  requested number of processors reduced to:  13 ShMem   1 Linda.
 CoulSu:  requested number of processors reduced to:  14 ShMem   1 Linda.
 CalDSu:  requested number of processors reduced to:  21 ShMem   1 Linda.
 CoulSu:  requested number of processors reduced to:  13 ShMem   1 Linda.
 CoulSu:  requested number of processors reduced to:  13 ShMem   1 Linda.
 CoulSu:  requested number of processors reduced to:  14 ShMem   1 Linda.
 CalDSu:  requested number of processors reduced to:  21 ShMem   1 Linda.
 CoulSu:  requested number of processors reduced to:  13 ShMem   1 Linda.
 CoulSu:  requested number of processors reduced to:  13 ShMem   1 Linda.
 CoulSu:  requested number of processors reduced to:  14 ShMem   1 Linda.
 CalDSu:  requested number of processors reduced to:  21 ShMem   1 Linda.
 CoulSu:  requested number of processors reduced to:  13 ShMem   1 Linda.
 CoulSu:  requested number of processors reduced to:  13 ShMem   1 Linda.
 CoulSu:  requested number of processors reduced to:  14 ShMem   1 Linda.
 CalDSu:  requested number of processors reduced to:  21 ShMem   1 Linda.
 CoulSu:  requested number of processors reduced to:  13 ShMem   1 Linda.
 CoulSu:  requested number of processors reduced to:  13 ShMem   1 Linda.
 CoulSu:  requested number of processors reduced to:  14 ShMem   1 Linda.
 CalDSu:  requested number of processors reduced to:  21 ShMem   1 Linda.
 CoulSu:  requested number of processors reduced to:  13 ShMem   1 Linda.
 CoulSu:  requested number of processors reduced to:  13 ShMem   1 Linda.
 CoulSu:  requested number of processors reduced to:  14 ShMem   1 Linda.
 CalDSu:  requested number of processors reduced to:  21 ShMem   1 Linda.
 CoulSu:  requested number of processors reduced to:  13 ShMem   1 Linda.
 CoulSu:  requested number of processors reduced to:  13 ShMem   1 Linda.
 CoulSu:  requested number of processors reduced to:  14 ShMem   1 Linda.
 CalDSu:  requested number of processors reduced to:  21 ShMem   1 Linda.
 CoulSu:  requested number of processors reduced to:  13 ShMem   1 Linda.
 CoulSu:  requested number of processors reduced to:  13 ShMem   1 Linda.
 CoulSu:  requested number of processors reduced to:  14 ShMem   1 Linda.
 CalDSu:  requested number of processors reduced to:  21 ShMem   1 Linda.
 CoulSu:  requested number of processors reduced to:  13 ShMem   1 Linda.
 CoulSu:  requested number of processors reduced to:  13 ShMem   1 Linda.
 CoulSu:  requested number of processors reduced to:  14 ShMem   1 Linda.
 CalDSu:  requested number of processors reduced to:  21 ShMem   1 Linda.
 CoulSu:  requested number of processors reduced to:  13 ShMem   1 Linda.
 CoulSu:  requested number of processors reduced to:  13 ShMem   1 Linda.
 CoulSu:  requested number of processors reduced to:  14 ShMem   1 Linda.
 CalDSu:  requested number of processors reduced to:  21 ShMem   1 Linda.
 CoulSu:  requested number of processors reduced to:  13 ShMem   1 Linda.
 CoulSu:  requested number of processors reduced to:  13 ShMem   1 Linda.
 CoulSu:  requested number of processors reduced to:  14 ShMem   1 Linda.
 CalDSu:  requested number of processors reduced to:  21 ShMem   1 Linda.
 CoulSu:  requested number of processors reduced to:  13 ShMem   1 Linda.
 CoulSu:  requested number of processors reduced to:  13 ShMem   1 Linda.
 CoulSu:  requested number of processors reduced to:  14 ShMem   1 Linda.
 CalDSu:  requested number of processors reduced to:  21 ShMem   1 Linda.
 CoulSu:  requested number of processors reduced to:  13 ShMem   1 Linda.
 CoulSu:  requested number of processors reduced to:  13 ShMem   1 Linda.
 CoulSu:  requested number of processors reduced to:  14 ShMem   1 Linda.
 CalDSu:  requested number of processors reduced to:  21 ShMem   1 Linda.
 CoulSu:  requested number of processors reduced to:  13 ShMem   1 Linda.
 CoulSu:  requested number of processors reduced to:  13 ShMem   1 Linda.
 CoulSu:  requested number of processors reduced to:  14 ShMem   1 Linda.
 CalDSu:  requested number of processors reduced to:  21 ShMem   1 Linda.
 CoulSu:  requested number of processors reduced to:  13 ShMem   1 Linda.
 CoulSu:  requested number of processors reduced to:  13 ShMem   1 Linda.
 CoulSu:  requested number of processors reduced to:  14 ShMem   1 Linda.
 CalDSu:  requested number of processors reduced to:  21 ShMem   1 Linda.
 CoulSu:  requested number of processors reduced to:  13 ShMem   1 Linda.
 CoulSu:  requested number of processors reduced to:  13 ShMem   1 Linda.
 CoulSu:  requested number of processors reduced to:  14 ShMem   1 Linda.
 CalDSu:  requested number of processors reduced to:  21 ShMem   1 Linda.
 CoulSu:  requested number of processors reduced to:  13 ShMem   1 Linda.
 CoulSu:  requested number of processors reduced to:  13 ShMem   1 Linda.
 CoulSu:  requested number of processors reduced to:  14 ShMem   1 Linda.
 CalDSu:  requested number of processors reduced to:  21 ShMem   1 Linda.
 CoulSu:  requested number of processors reduced to:  13 ShMem   1 Linda.
 CoulSu:  requested number of processors reduced to:  13 ShMem   1 Linda.
 CoulSu:  requested number of processors reduced to:  14 ShMem   1 Linda.
 CalDSu:  requested number of processors reduced to:  21 ShMem   1 Linda.
 CoulSu:  requested number of processors reduced to:  13 ShMem   1 Linda.
 CoulSu:  requested number of processors reduced to:  13 ShMem   1 Linda.
 CoulSu:  requested number of processors reduced to:  14 ShMem   1 Linda.
 CalDSu:  requested number of processors reduced to:  21 ShMem   1 Linda.
 CoulSu:  requested number of processors reduced to:  13 ShMem   1 Linda.
 CoulSu:  requested number of processors reduced to:  13 ShMem   1 Linda.
 CoulSu:  requested number of processors reduced to:  14 ShMem   1 Linda.
 CalDSu:  requested number of processors reduced to:  21 ShMem   1 Linda.
 CoulSu:  requested number of processors reduced to:  13 ShMem   1 Linda.
 CoulSu:  requested number of processors reduced to:  13 ShMem   1 Linda.
 CoulSu:  requested number of processors reduced to:  14 ShMem   1 Linda.
 CalDSu:  requested number of processors reduced to:  21 ShMem   1 Linda.
 CoulSu:  requested number of processors reduced to:  13 ShMem   1 Linda.
 CoulSu:  requested number of processors reduced to:  13 ShMem   1 Linda.
 CoulSu:  requested number of processors reduced to:  14 ShMem   1 Linda.
 CalDSu:  requested number of processors reduced to:  21 ShMem   1 Linda.
 CoulSu:  requested number of processors reduced to:  13 ShMem   1 Linda.
 CoulSu:  requested number of processors reduced to:  13 ShMem   1 Linda.
 CoulSu:  requested number of processors reduced to:  14 ShMem   1 Linda.
 CalDSu:  requested number of processors reduced to:  21 ShMem   1 Linda.
 CoulSu:  requested number of processors reduced to:  13 ShMem   1 Linda.
 CoulSu:  requested number of processors reduced to:  13 ShMem   1 Linda.
 CoulSu:  requested number of processors reduced to:  14 ShMem   1 Linda.
 CalDSu:  requested number of processors reduced to:  21 ShMem   1 Linda.
 CoulSu:  requested number of processors reduced to:  13 ShMem   1 Linda.
 CoulSu:  requested number of processors reduced to:  13 ShMem   1 Linda.
 CoulSu:  requested number of processors reduced to:  14 ShMem   1 Linda.
 CalDSu:  requested number of processors reduced to:  21 ShMem   1 Linda.
 CoulSu:  requested number of processors reduced to:  13 ShMem   1 Linda.
 CoulSu:  requested number of processors reduced to:  13 ShMem   1 Linda.
 CoulSu:  requested number of processors reduced to:  14 ShMem   1 Linda.
 CalDSu:  requested number of processors reduced to:  21 ShMem   1 Linda.
 CoulSu:  requested number of processors reduced to:  13 ShMem   1 Linda.
 CoulSu:  requested number of processors reduced to:  13 ShMem   1 Linda.
 CoulSu:  requested number of processors reduced to:  14 ShMem   1 Linda.
 CalDSu:  requested number of processors reduced to:  21 ShMem   1 Linda.
 CoulSu:  requested number of processors reduced to:  13 ShMem   1 Linda.
 CoulSu:  requested number of processors reduced to:  13 ShMem   1 Linda.
 CoulSu:  requested number of processors reduced to:  14 ShMem   1 Linda.
 CalDSu:  requested number of processors reduced to:  21 ShMem   1 Linda.
 CoulSu:  requested number of processors reduced to:  13 ShMem   1 Linda.
 CoulSu:  requested number of processors reduced to:  13 ShMem   1 Linda.
 CoulSu:  requested number of processors reduced to:  14 ShMem   1 Linda.
 CalDSu:  requested number of processors reduced to:  21 ShMem   1 Linda.
 CoulSu:  requested number of processors reduced to:  13 ShMem   1 Linda.
 CoulSu:  requested number of processors reduced to:  13 ShMem   1 Linda.
 CoulSu:  requested number of processors reduced to:  14 ShMem   1 Linda.
 CalDSu:  requested number of processors reduced to:  21 ShMem   1 Linda.
 CoulSu:  requested number of processors reduced to:  13 ShMem   1 Linda.
 CoulSu:  requested number of processors reduced to:  13 ShMem   1 Linda.
 CoulSu:  requested number of processors reduced to:  14 ShMem   1 Linda.
 CalDSu:  requested number of processors reduced to:  21 ShMem   1 Linda.
 CoulSu:  requested number of processors reduced to:  13 ShMem   1 Linda.
 CoulSu:  requested number of processors reduced to:  13 ShMem   1 Linda.
 CoulSu:  requested number of processors reduced to:  14 ShMem   1 Linda.
 CalDSu:  requested number of processors reduced to:  21 ShMem   1 Linda.
 CoulSu:  requested number of processors reduced to:  13 ShMem   1 Linda.
 CoulSu:  requested number of processors reduced to:  13 ShMem   1 Linda.
 CoulSu:  requested number of processors reduced to:  14 ShMem   1 Linda.
 CalDSu:  requested number of processors reduced to:  21 ShMem   1 Linda.
 CoulSu:  requested number of processors reduced to:  13 ShMem   1 Linda.
 CoulSu:  requested number of processors reduced to:  13 ShMem   1 Linda.
 CoulSu:  requested number of processors reduced to:  14 ShMem   1 Linda.
 CalDSu:  requested number of processors reduced to:  21 ShMem   1 Linda.
 CoulSu:  requested number of processors reduced to:  13 ShMem   1 Linda.
 CoulSu:  requested number of processors reduced to:  13 ShMem   1 Linda.
 CoulSu:  requested number of processors reduced to:  14 ShMem   1 Linda.
 CalDSu:  requested number of processors reduced to:  21 ShMem   1 Linda.
 CoulSu:  requested number of processors reduced to:  13 ShMem   1 Linda.
 CoulSu:  requested number of processors reduced to:  13 ShMem   1 Linda.
 CoulSu:  requested number of processors reduced to:  14 ShMem   1 Linda.
 CalDSu:  requested number of processors reduced to:  21 ShMem   1 Linda.
          There are    66 degrees of freedom in the 1st order CPHF.  IDoFFX=6 NUNeed=     3.
     63 vectors produced by pass  0 Test12= 5.42D-14 1.52D-09 XBig12= 9.94D+01 2.47D+00.
 Estimated number of processors is:   14
 AX will form     1 AO Fock derivatives at one time.
 CoulSu:  requested number of processors reduced to:  13 ShMem   1 Linda.
 CoulSu:  requested number of processors reduced to:  13 ShMem   1 Linda.
 CoulSu:  requested number of processors reduced to:  14 ShMem   1 Linda.
 CalDSu:  requested number of processors reduced to:  21 ShMem   1 Linda.
 CoulSu:  requested number of processors reduced to:  13 ShMem   1 Linda.
 CoulSu:  requested number of processors reduced to:  13 ShMem   1 Linda.
 CoulSu:  requested number of processors reduced to:  14 ShMem   1 Linda.
 CalDSu:  requested number of processors reduced to:  21 ShMem   1 Linda.
 CoulSu:  requested number of processors reduced to:  13 ShMem   1 Linda.
 CoulSu:  requested number of processors reduced to:  13 ShMem   1 Linda.
 CoulSu:  requested number of processors reduced to:  14 ShMem   1 Linda.
 CalDSu:  requested number of processors reduced to:  21 ShMem   1 Linda.
 CoulSu:  requested number of processors reduced to:  13 ShMem   1 Linda.
 CoulSu:  requested number of processors reduced to:  13 ShMem   1 Linda.
 CoulSu:  requested number of processors reduced to:  14 ShMem   1 Linda.
 CalDSu:  requested number of processors reduced to:  21 ShMem   1 Linda.
 CoulSu:  requested number of processors reduced to:  13 ShMem   1 Linda.
 CoulSu:  requested number of processors reduced to:  13 ShMem   1 Linda.
 CoulSu:  requested number of processors reduced to:  14 ShMem   1 Linda.
 CalDSu:  requested number of processors reduced to:  21 ShMem   1 Linda.
 CoulSu:  requested number of processors reduced to:  13 ShMem   1 Linda.
 CoulSu:  requested number of processors reduced to:  13 ShMem   1 Linda.
 CoulSu:  requested number of processors reduced to:  14 ShMem   1 Linda.
 CalDSu:  requested number of processors reduced to:  21 ShMem   1 Linda.
 CoulSu:  requested number of processors reduced to:  13 ShMem   1 Linda.
 CoulSu:  requested number of processors reduced to:  13 ShMem   1 Linda.
 CoulSu:  requested number of processors reduced to:  14 ShMem   1 Linda.
 CalDSu:  requested number of processors reduced to:  21 ShMem   1 Linda.
 CoulSu:  requested number of processors reduced to:  13 ShMem   1 Linda.
 CoulSu:  requested number of processors reduced to:  13 ShMem   1 Linda.
 CoulSu:  requested number of processors reduced to:  14 ShMem   1 Linda.
 CalDSu:  requested number of processors reduced to:  21 ShMem   1 Linda.
 CoulSu:  requested number of processors reduced to:  13 ShMem   1 Linda.
 CoulSu:  requested number of processors reduced to:  13 ShMem   1 Linda.
 CoulSu:  requested number of processors reduced to:  14 ShMem   1 Linda.
 CalDSu:  requested number of processors reduced to:  21 ShMem   1 Linda.
 CoulSu:  requested number of processors reduced to:  13 ShMem   1 Linda.
 CoulSu:  requested number of processors reduced to:  13 ShMem   1 Linda.
 CoulSu:  requested number of processors reduced to:  14 ShMem   1 Linda.
 CalDSu:  requested number of processors reduced to:  21 ShMem   1 Linda.
 CoulSu:  requested number of processors reduced to:  13 ShMem   1 Linda.
 CoulSu:  requested number of processors reduced to:  13 ShMem   1 Linda.
 CoulSu:  requested number of processors reduced to:  14 ShMem   1 Linda.
 CalDSu:  requested number of processors reduced to:  21 ShMem   1 Linda.
 CoulSu:  requested number of processors reduced to:  13 ShMem   1 Linda.
 CoulSu:  requested number of processors reduced to:  13 ShMem   1 Linda.
 CoulSu:  requested number of processors reduced to:  14 ShMem   1 Linda.
 CalDSu:  requested number of processors reduced to:  21 ShMem   1 Linda.
 CoulSu:  requested number of processors reduced to:  13 ShMem   1 Linda.
 CoulSu:  requested number of processors reduced to:  13 ShMem   1 Linda.
 CoulSu:  requested number of processors reduced to:  14 ShMem   1 Linda.
 CalDSu:  requested number of processors reduced to:  21 ShMem   1 Linda.
 CoulSu:  requested number of processors reduced to:  13 ShMem   1 Linda.
 CoulSu:  requested number of processors reduced to:  13 ShMem   1 Linda.
 CoulSu:  requested number of processors reduced to:  14 ShMem   1 Linda.
 CalDSu:  requested number of processors reduced to:  21 ShMem   1 Linda.
 CoulSu:  requested number of processors reduced to:  13 ShMem   1 Linda.
 CoulSu:  requested number of processors reduced to:  13 ShMem   1 Linda.
 CoulSu:  requested number of processors reduced to:  14 ShMem   1 Linda.
 CalDSu:  requested number of processors reduced to:  21 ShMem   1 Linda.
 CoulSu:  requested number of processors reduced to:  13 ShMem   1 Linda.
 CoulSu:  requested number of processors reduced to:  13 ShMem   1 Linda.
 CoulSu:  requested number of processors reduced to:  14 ShMem   1 Linda.
 CalDSu:  requested number of processors reduced to:  21 ShMem   1 Linda.
 CoulSu:  requested number of processors reduced to:  13 ShMem   1 Linda.
 CoulSu:  requested number of processors reduced to:  13 ShMem   1 Linda.
 CoulSu:  requested number of processors reduced to:  14 ShMem   1 Linda.
 CalDSu:  requested number of processors reduced to:  21 ShMem   1 Linda.
 CoulSu:  requested number of processors reduced to:  13 ShMem   1 Linda.
 CoulSu:  requested number of processors reduced to:  13 ShMem   1 Linda.
 CoulSu:  requested number of processors reduced to:  14 ShMem   1 Linda.
 CalDSu:  requested number of processors reduced to:  21 ShMem   1 Linda.
 CoulSu:  requested number of processors reduced to:  13 ShMem   1 Linda.
 CoulSu:  requested number of processors reduced to:  13 ShMem   1 Linda.
 CoulSu:  requested number of processors reduced to:  14 ShMem   1 Linda.
 CalDSu:  requested number of processors reduced to:  21 ShMem   1 Linda.
 CoulSu:  requested number of processors reduced to:  13 ShMem   1 Linda.
 CoulSu:  requested number of processors reduced to:  13 ShMem   1 Linda.
 CoulSu:  requested number of processors reduced to:  14 ShMem   1 Linda.
 CalDSu:  requested number of processors reduced to:  21 ShMem   1 Linda.
 CoulSu:  requested number of processors reduced to:  13 ShMem   1 Linda.
 CoulSu:  requested number of processors reduced to:  13 ShMem   1 Linda.
 CoulSu:  requested number of processors reduced to:  14 ShMem   1 Linda.
 CalDSu:  requested number of processors reduced to:  21 ShMem   1 Linda.
 CoulSu:  requested number of processors reduced to:  13 ShMem   1 Linda.
 CoulSu:  requested number of processors reduced to:  13 ShMem   1 Linda.
 CoulSu:  requested number of processors reduced to:  14 ShMem   1 Linda.
 CalDSu:  requested number of processors reduced to:  21 ShMem   1 Linda.
 CoulSu:  requested number of processors reduced to:  13 ShMem   1 Linda.
 CoulSu:  requested number of processors reduced to:  13 ShMem   1 Linda.
 CoulSu:  requested number of processors reduced to:  14 ShMem   1 Linda.
 CalDSu:  requested number of processors reduced to:  21 ShMem   1 Linda.
 CoulSu:  requested number of processors reduced to:  13 ShMem   1 Linda.
 CoulSu:  requested number of processors reduced to:  13 ShMem   1 Linda.
 CoulSu:  requested number of processors reduced to:  14 ShMem   1 Linda.
 CalDSu:  requested number of processors reduced to:  21 ShMem   1 Linda.
 CoulSu:  requested number of processors reduced to:  13 ShMem   1 Linda.
 CoulSu:  requested number of processors reduced to:  13 ShMem   1 Linda.
 CoulSu:  requested number of processors reduced to:  14 ShMem   1 Linda.
 CalDSu:  requested number of processors reduced to:  21 ShMem   1 Linda.
 CoulSu:  requested number of processors reduced to:  13 ShMem   1 Linda.
 CoulSu:  requested number of processors reduced to:  13 ShMem   1 Linda.
 CoulSu:  requested number of processors reduced to:  14 ShMem   1 Linda.
 CalDSu:  requested number of processors reduced to:  21 ShMem   1 Linda.
 CoulSu:  requested number of processors reduced to:  13 ShMem   1 Linda.
 CoulSu:  requested number of processors reduced to:  13 ShMem   1 Linda.
 CoulSu:  requested number of processors reduced to:  14 ShMem   1 Linda.
 CalDSu:  requested number of processors reduced to:  21 ShMem   1 Linda.
 CoulSu:  requested number of processors reduced to:  13 ShMem   1 Linda.
 CoulSu:  requested number of processors reduced to:  13 ShMem   1 Linda.
 CoulSu:  requested number of processors reduced to:  14 ShMem   1 Linda.
 CalDSu:  requested number of processors reduced to:  21 ShMem   1 Linda.
 CoulSu:  requested number of processors reduced to:  13 ShMem   1 Linda.
 CoulSu:  requested number of processors reduced to:  13 ShMem   1 Linda.
 CoulSu:  requested number of processors reduced to:  14 ShMem   1 Linda.
 CalDSu:  requested number of processors reduced to:  21 ShMem   1 Linda.
 CoulSu:  requested number of processors reduced to:  13 ShMem   1 Linda.
 CoulSu:  requested number of processors reduced to:  13 ShMem   1 Linda.
 CoulSu:  requested number of processors reduced to:  14 ShMem   1 Linda.
 CalDSu:  requested number of processors reduced to:  21 ShMem   1 Linda.
 CoulSu:  requested number of processors reduced to:  13 ShMem   1 Linda.
 CoulSu:  requested number of processors reduced to:  13 ShMem   1 Linda.
 CoulSu:  requested number of processors reduced to:  14 ShMem   1 Linda.
 CalDSu:  requested number of processors reduced to:  21 ShMem   1 Linda.
 CoulSu:  requested number of processors reduced to:  13 ShMem   1 Linda.
 CoulSu:  requested number of processors reduced to:  13 ShMem   1 Linda.
 CoulSu:  requested number of processors reduced to:  14 ShMem   1 Linda.
 CalDSu:  requested number of processors reduced to:  21 ShMem   1 Linda.
 CoulSu:  requested number of processors reduced to:  13 ShMem   1 Linda.
 CoulSu:  requested number of processors reduced to:  13 ShMem   1 Linda.
 CoulSu:  requested number of processors reduced to:  14 ShMem   1 Linda.
 CalDSu:  requested number of processors reduced to:  21 ShMem   1 Linda.
 CoulSu:  requested number of processors reduced to:  13 ShMem   1 Linda.
 CoulSu:  requested number of processors reduced to:  13 ShMem   1 Linda.
 CoulSu:  requested number of processors reduced to:  14 ShMem   1 Linda.
 CalDSu:  requested number of processors reduced to:  21 ShMem   1 Linda.
 CoulSu:  requested number of processors reduced to:  13 ShMem   1 Linda.
 CoulSu:  requested number of processors reduced to:  13 ShMem   1 Linda.
 CoulSu:  requested number of processors reduced to:  14 ShMem   1 Linda.
 CalDSu:  requested number of processors reduced to:  21 ShMem   1 Linda.
[...]
 0113491,-0.02935391,-0.03890298,-0.00028546,0.00289279,0.07637943,-0.0
 0171531,0.00626291,-0.00529032,0.00076159,0.00033344,0.00074104,0.0001
 1229,-0.00051446,-0.00040762,-0.00159685,-0.00077438,0.00200802,0.0001
 5279,-0.00263457,-0.00294158,-0.00119404,0.00031940,0.00111188,0.00043
 428,-0.00009973,0.00047156,-0.00004721,0.00009976,0.00007966,-0.011119
 18,-0.00373778,-0.04530575,-0.13546134,0.02922119,0.19917283,0.0002582
 0,0.02666912,-0.00705009,-0.00107305,-0.00292211,0.00025335,0.00026144
 ,-0.00318591,-0.00317315,-0.00422840,-0.00291594,0.00434886,-0.0025791
 8,-0.01792060,-0.00405341,-0.00366284,0.00213174,0.00231856,0.00143943
 ,0.00033097,0.00073850,0.00003999,0.00239983,-0.00275246,-0.05798030,-
 0.01335907,0.01809612,-0.16386117,0.02727950,0.11163985,0.57324102,0.0
 3634670,-0.05921132,0.02452459,-0.01202311,-0.00672944,-0.00590932,-0.
 00299176,0.00742139,0.00893492,0.00664867,0.00553161,-0.00879197,-0.00
 632697,0.00762534,0.00210982,0.00424450,-0.00106360,-0.00181200,0.0016
 3054,-0.00054490,0.00075370,0.00067034,-0.00065905,0.00071597,0.014662
 54,0.02088747,-0.00202379,0.01461627,-0.04035400,-0.01890196,0.0111863
 4,0.39006311,-0.00270937,0.00546874,0.00685558,-0.00038618,-0.00119848
 ,-0.00150122,0.00066557,-0.00090912,-0.00142042,0.00094468,-0.00017281
 ,-0.00169552,0.00131872,0.00816467,0.00732406,0.00251671,-0.00072301,-
 0.00294078,-0.00131562,0.00022576,-0.00111543,-0.00013615,-0.00046183,
 0.00016127,0.04371616,0.00810740,0.01387025,0.10825305,-0.02504010,-0.
 14355545,0.00939640,-0.03306107,0.48457212,-0.07991649,0.09571404,-0.0
 3660241,-0.01098237,0.00156798,-0.00733291,-0.00111785,0.00563117,0.00
 765587,0.01159146,-0.00037698,-0.00695490,0.00357057,0.00767470,-0.000
 48748,-0.00043896,-0.00185123,-0.00043308,-0.00083183,-0.00009797,-0.0
 0034682,0.00003075,-0.00148409,0.00188323,0.01530159,0.00373172,-0.002
 14776,-0.01617417,0.01973359,0.01077598,-0.03937758,0.01716991,-0.0019
 2002,0.12370082,0.09253948,-0.18280595,0.06299295,0.01480165,0.0162122
 7,0.00695067,0.00502033,-0.01197468,-0.01531196,-0.01263887,-0.0078042
 2,0.01522817,0.00222248,-0.01333835,-0.00186321,-0.00496401,0.00135723
 ,0.00135496,-0.00061052,0.00054064,-0.00029446,-0.00056755,0.00166719,
 -0.00197004,-0.02594404,-0.01608996,0.00314362,0.03516390,-0.01472146,
 -0.01390485,0.02306270,-0.16937040,0.00625425,-0.14432366,0.43280951,-
 0.03836534,0.06763916,-0.05634518,-0.00737019,0.00035564,-0.00166115,0
 .00125903,-0.00040171,0.01175058,0.00029709,0.00602225,-0.00350321,0.0
 0042620,0.00062239,-0.00283721,-0.00130104,-0.00056608,0.00097798,0.00
 004620,-0.00007993,0.00016921,0.00013358,-0.00057962,0.00091057,-0.002
 29737,-0.00008677,-0.00385571,0.00784454,-0.00814903,0.00474065,0.0022
 4296,-0.01047787,-0.03641054,0.04222105,-0.07218126,0.07542393,0.00340
 179,-0.00629493,0.00004767,-0.00063682,-0.00000029,-0.00024803,-0.0001
 9204,0.00118728,0.00141677,0.00012947,0.00094130,-0.00032843,-0.051895
 54,-0.07172068,-0.02359881,0.00957598,0.00325221,-0.00366812,-0.005732
 53,-0.00543317,-0.00501731,0.00057862,-0.00401852,0.00574037,-0.034588
 96,-0.00288825,0.00097619,-0.01836315,-0.02298967,0.00175659,0.0120867
 2,-0.00217691,-0.01040965,-0.00653724,0.00575904,0.00043245,0.08212746
 ,-0.00111755,-0.01336434,0.00116639,0.00074618,0.00108426,0.00041242,0
 .00035910,0.00179818,0.00202271,0.00293005,0.00208383,-0.00178989,-0.0
 6949450,-0.22161843,-0.06532669,0.01646863,-0.00645845,-0.01479682,-0.
 01981313,0.00937686,-0.00985299,-0.00281569,-0.01308887,0.01734575,-0.
 00501564,-0.16566855,-0.01379200,-0.03823224,-0.01710440,0.00583900,0.
 02543547,-0.01621072,-0.01689774,-0.00782436,0.01710526,-0.00041354,0.
 09726974,0.47521913,0.00008259,-0.00146860,-0.00218887,0.00012093,0.00
 019301,0.00018221,0.00005228,0.00058078,0.00078463,-0.00037947,0.00015
 546,0.00075504,-0.02361057,-0.06973961,-0.05248863,0.00198238,-0.00609
 520,-0.00301691,-0.00623521,-0.00193622,-0.00189164,0.00135781,0.00201
 290,0.01176332,0.00287353,-0.00136617,-0.03952817,-0.00825601,-0.00424
 421,0.01033936,0.00303523,-0.00306371,-0.00697325,-0.00031001,0.001954
 83,0.00132083,0.02756072,0.09244343,0.07470771,0.00059221,-0.00609977,
 0.00150726,-0.00000745,0.00041937,-0.00016124,-0.00009451,0.00091387,0
 .00103844,0.00109949,0.00079404,-0.00113071,-0.00009594,0.00341978,-0.
 00029508,0.00071094,-0.00048963,-0.00023201,0.00002910,-0.00020214,0.0
 0012068,0.00003162,-0.00054492,0.00066861,-0.00016957,0.00431658,-0.00
 650008,0.00413840,-0.00181117,0.01623858,-0.08278156,0.02000095,-0.063
 75533,0.00100170,0.01172585,-0.00868525,-0.00049606,-0.00396670,0.0006
 0415,0.28383071,-0.00500697,0.00741690,-0.00333971,0.00180916,0.001019
 57,0.00092455,0.00045524,-0.00107201,-0.00138080,-0.00095855,-0.000754
 36,0.00131123,0.00191414,-0.00087437,-0.00113087,-0.00101979,0.0001256
 2,0.00073233,-0.00057416,0.00010347,-0.00021386,-0.00015357,-0.0000891
 5,0.00016741,0.00111465,-0.00472333,0.00122500,0.00061682,0.00569718,0
 .00043945,0.02881874,-0.04651464,0.05492855,0.01257322,-0.01741705,0.0
 1784591,-0.00033090,0.00234735,0.00070716,-0.02142988,0.05342650,0.002
 97807,-0.00628183,-0.00008866,-0.00067459,0.00001571,-0.00018917,-0.00
 046948,0.00122575,0.00183526,0.00052017,0.00053948,-0.00057409,-0.0013
 8478,-0.00320857,-0.00301961,-0.00067798,0.00027501,0.00113750,0.00079
 236,-0.00015116,0.00061682,0.00011811,0.00014706,-0.00000427,-0.019230
 15,-0.00354000,-0.00471832,0.01384457,0.00602645,-0.03083899,-0.093861
 70,0.05625152,-0.23564758,-0.00852708,0.01357755,-0.00341846,0.0035939
 0,0.00592263,0.00229273,-0.16252048,-0.08600455,0.66145876,0.00060688,
 0.00020959,-0.00018518,-0.00019653,-0.00015893,-0.00002104,-0.00008277
 ,-0.00001841,0.00010248,-0.00010970,-0.00006935,0.00008104,-0.00000578
 ,-0.00012833,0.00036738,0.00003076,0.00004543,-0.00012157,-0.00002770,
 0.00003428,-0.00006090,0.00000210,0.00008276,-0.00012159,-0.00018518,0
 .00024344,-0.00065811,0.00176680,0.00051982,-0.00228277,0.00421130,0.0
 0251029,-0.01454770,-0.00158262,0.00086939,-0.00044514,0.00000571,-0.0
 0001312,-0.00008424,-0.19489211,-0.00985288,0.26835430,0.19229963,0.00
 060157,-0.00077358,0.00114825,-0.00030226,-0.00016093,-0.00020145,-0.0
 0001543,0.00004532,-0.00017932,0.00013334,0.00012563,-0.00022169,-0.00
 048998,0.00045412,0.00061299,0.00040957,-0.00008362,-0.00039837,0.0001
 5383,-0.00001833,0.00003328,0.00004148,0.00006756,-0.00012015,0.000263
 40,0.00053318,-0.00001586,0.00048680,0.00212080,0.00022040,-0.00263171
 ,0.00080429,0.00803507,0.00074928,-0.00040519,-0.00165682,-0.00009268,
 -0.00065768,-0.00018370,-0.00486112,-0.00552346,0.01403338,0.00609202,
 0.00459230,-0.00091144,0.00244646,-0.00048864,0.00019280,-0.00005445,0
 .00010945,0.00014462,-0.00043706,-0.00056324,-0.00027027,-0.00024055,0
 .00033014,0.00046500,0.00041474,0.00028804,-0.00003333,-0.00005878,-0.
 00010270,-0.00019053,0.00002306,-0.00011774,-0.00004070,-0.00002409,0.
 00000391,-0.00002806,0.00025278,-0.00129141,-0.00031861,0.00078933,-0.
 00122047,0.01268017,0.00294484,-0.02264031,0.00094909,-0.00395259,0.00
 228615,-0.00030869,-0.00050820,0.00003104,0.23817600,0.01955446,-0.382
 24825,-0.25232759,-0.02099816,0.40115944,-0.01006172,0.00384951,-0.003
 98743,0.00363582,0.00423331,0.00110547,0.00052193,-0.00027335,-0.00045
 711,0.00038902,0.00002056,0.00001430,0.00111675,0.00361006,0.00061889,
 0.00040855,-0.00039280,-0.00035138,-0.00049706,-0.00004895,-0.00022884
 ,-0.00008393,-0.00057816,0.00067690,0.01058693,0.00322243,-0.00102074,
 -0.02154266,-0.00731217,0.00383335,-0.22710979,-0.10612190,-0.03441306
 ,0.00648514,-0.01717580,0.00163716,-0.00271799,-0.00560097,-0.00083314
 ,-0.01321550,-0.00574322,-0.01097468,-0.00165141,-0.00021752,0.0019791
 4,0.51030082,-0.00816623,0.01248975,-0.00603535,0.00244704,0.00016183,
 0.00147465,0.00063619,-0.00158202,-0.00184910,-0.00143529,-0.00121589,
 0.00200216,0.00150771,-0.00103575,-0.00030011,-0.00089409,0.00017818,0
 .00029791,-0.00046327,0.00010940,-0.00021239,-0.00017311,0.00003109,-0
 .00002326,0.00023521,-0.00216561,-0.00022427,-0.00030474,0.00492032,-0
 .00153711,-0.09083381,-0.09165316,-0.00835035,-0.01061943,-0.03723148,
 0.00124760,-0.00007779,0.00179269,0.00028162,0.00380643,0.00639588,0.0
 0410403,-0.00008057,-0.00123212,-0.00028084,-0.04011582,0.22537984,-0.
 00195078,0.00079900,-0.00321251,0.00081452,0.00191278,0.00095438,-0.00
 014659,0.00015238,0.00043641,-0.00019594,-0.00011040,0.00052016,0.0000
 6417,-0.00054569,-0.00094909,-0.00030389,0.00006386,0.00036087,0.00009
 318,-0.00003418,0.00011970,-0.00000889,-0.00004789,0.00012640,-0.00358
 369,-0.00085417,-0.00264131,0.01153710,0.00076259,0.00499775,-0.046872
 53,-0.01690147,-0.04892982,-0.00041344,-0.00430046,0.01008963,0.000803
 66,0.00145745,0.00079943,-0.01869232,-0.00433859,-0.00606333,0.0008344
 4,-0.00007396,0.00322545,0.26625756,-0.12964813,0.23586209,0.00123628,
 -0.00363070,0.00088827,-0.00032673,0.00005023,-0.00014224,-0.00015098,
 0.00056015,0.00060873,0.00050321,0.00046751,-0.00053708,-0.00354126,-0
 .00044681,-0.00152953,0.00055063,-0.00014861,-0.00023675,0.00155951,-0
 .00063312,0.00082775,0.00017258,-0.00002734,0.00007372,-0.08513458,0.0
 4403430,-0.06843045,-0.02125053,0.00919706,-0.01286189,0.01119288,-0.0
 0500659,-0.00734335,-0.00287606,0.00562092,-0.00003424,0.00783465,0.00
 254533,-0.00153139,-0.00351833,0.00074059,0.00433359,-0.00089995,0.000
 29076,-0.00101587,-0.00235709,-0.00005327,0.00048852,0.29010082,-0.001
 38458,-0.00093087,0.00020113,0.00044315,0.00026645,0.00018230,0.000176
 71,0.00002618,0.00000299,0.00056146,0.00023739,-0.00031200,0.00443422,
 0.01271269,0.00390295,0.00163508,-0.00096484,-0.00137150,-0.00199916,0
 .00001714,-0.00085024,-0.00036915,-0.00164172,0.00184227,0.05598021,-0
 .08787031,0.09566727,0.00178006,0.00686216,0.00159060,-0.00092064,-0.0
 0403832,0.00245754,0.00022721,0.00161805,-0.00030784,0.00156583,-0.028
 53467,0.01169959,-0.00054075,0.00272976,-0.00124278,0.00013673,-0.0002
 0160,0.00004211,0.00012605,0.00072074,-0.00034934,-0.00943198,0.116014
 81,0.00076435,-0.00025040,-0.00079217,-0.00016113,-0.00003083,0.000022
 17,-0.00012431,0.00022092,0.00033318,-0.00030738,-0.00007588,0.0003269
 9,-0.00369751,-0.00569423,-0.00611305,-0.00092486,0.00032717,0.0012755
 7,0.00194621,-0.00077863,0.00156492,0.00008308,0.00037032,-0.00015932,
 -0.08927541,0.09651348,-0.20476028,-0.01457229,0.00515279,0.00430763,0
 .00306250,0.00107471,-0.01439263,-0.00073620,0.00037904,0.00193435,-0.
 00184181,0.01732532,0.00444601,0.00518597,-0.00167256,0.00444429,0.000
 07198,-0.00007512,0.00048493,-0.00033223,-0.00036113,0.00193830,-0.151
 63331,-0.18900174,0.56286226,0.00112331,-0.00297728,0.00068927,-0.0002
 9710,0.00003958,-0.00011769,-0.00014264,0.00047209,0.00050951,0.000377
 80,0.00040526,-0.00043213,-0.00331118,-0.00175120,0.00050175,0.0003593
 0,-0.00006832,-0.00017448,0.00113824,-0.00027927,0.00028538,0.00036001
 ,0.00031139,-0.00079884,-0.08966934,0.03840458,0.08992043,-0.02014382,
 0.00392546,0.01918125,0.00729337,-0.00329451,-0.00714547,-0.00261675,0
 .00468441,0.00027478,0.00742718,0.00535625,0.00396551,-0.00038764,-0.0
 0010976,0.00325259,0.00014172,-0.00001771,0.00001483,-0.00210974,0.000
 01054,0.00069432,0.00522786,0.00120628,-0.00482938,0.14683696,-0.00118
 060,-0.00122170,0.00024945,0.00040374,0.00026543,0.00018782,0.00013905
 ,0.00007414,0.00006592,0.00058195,0.00027103,-0.00036046,0.00364850,0.
 01069890,0.00437081,0.00161725,-0.00095189,-0.00154810,-0.00190952,0.0
 0028828,-0.00122579,-0.00007465,-0.00130843,0.00152705,0.03731950,-0.0
 5401728,-0.05084076,-0.00104526,0.00602599,-0.00028089,0.00030337,-0.0
 0204850,-0.00036019,-0.00023412,0.00188939,-0.00004368,0.00379489,-0.0
 2384135,-0.02250068,-0.00027581,0.00067841,-0.00005105,-0.00005832,-0.
 00018423,-0.00005281,0.00004207,0.00054137,0.00019743,-0.00147107,0.00
 320650,0.00922105,-0.10954597,0.15142155,-0.00145042,0.00165234,-0.001
 48701,0.00048595,0.00018476,0.00031551,0.00014990,-0.00013851,-0.00007
 942,-0.00021625,-0.00023798,0.00057497,0.00362777,0.00907384,0.0003758
 4,0.00077633,-0.00063323,-0.00068115,-0.00120263,0.00000139,-0.0004156
 5,-0.00035333,-0.00137953,0.00223331,0.11007769,-0.06625816,-0.2320463
 7,0.01025865,-0.00285508,-0.00129452,-0.00567261,0.00166332,0.00107660
 ,0.00206455,-0.00289816,0.00058372,0.00273450,-0.02059430,-0.00535534,
 0.00175816,-0.00025950,-0.00039949,-0.00009485,-0.00008633,0.00016471,
 0.00157804,0.00024740,0.00036474,0.00907626,0.00103823,-0.02520424,0.0
 1547581,-0.11688623,0.69077701,0.00499029,-0.00345134,0.00210380,-0.00
 244768,-0.00196561,-0.00070968,-0.00023848,0.00024566,0.00030423,-0.00
 005873,0.00015240,-0.00010347,-0.00031354,-0.00054392,-0.00015483,-0.0
 0000182,0.00006331,0.00006051,0.00012653,-0.00000276,0.00006478,0.0000
 2732,0.00009211,-0.00009495,-0.00170847,-0.00069395,-0.00000677,0.0020
 9589,-0.00026677,0.00079617,-0.02232041,0.00353792,-0.01628389,-0.0005
 4490,0.00811960,0.00042915,0.00043210,0.00078930,0.00017526,0.00056466
 ,-0.00064672,-0.00008062,-0.00034284,-0.00014186,-0.00033543,-0.253493
 90,0.14486930,-0.21041023,0.00042445,-0.00002665,0.00026266,0.00033457
 ,0.00005291,-0.00013581,0.27262076,-0.00351583,-0.00351787,-0.00128251
 ,0.00110596,0.00259979,0.00031346,-0.00006126,0.00060023,0.00070712,0.
 00069222,0.00047690,-0.00063201,-0.00046039,0.00054841,0.00009047,0.00
 028805,-0.00010194,-0.00012459,0.00014368,-0.00004177,0.00006652,0.000
 06397,-0.00004928,0.00005512,0.00038150,0.00094940,0.00002648,-0.00107
 325,-0.00120240,0.00017105,-0.01500353,0.00400116,-0.00780667,0.002456
 19,-0.00174002,0.00135751,-0.00005211,-0.00082330,-0.00010584,-0.00367
 660,-0.00044580,-0.00203744,0.00006513,0.00008355,0.00041872,0.1688863
 0,-0.11611565,0.15217428,-0.00013236,-0.00017943,0.00009274,-0.0001228
 0,-0.00019569,-0.00002684,-0.15017413,0.11505776,0.00182273,-0.0017714
 3,0.00270263,-0.00076480,-0.00130933,-0.00111714,0.00001004,0.00007696
 ,-0.00014018,0.00019050,0.00010777,-0.00038526,-0.00017226,-0.00007151
 ,0.00010828,0.00008467,-0.00000858,-0.00004653,0.00004647,-0.00000546,
 0.00001385,0.00001651,0.00004527,-0.00007460,-0.00063767,0.00007761,0.
 00014512,0.00268045,0.00104066,-0.00171155,-0.00223867,0.00168060,-0.0
 0147245,0.00087829,0.00437757,-0.00136768,0.00019822,0.00017685,-0.000
 01388,-0.00189803,-0.00040302,0.00040715,0.00008965,0.00033014,0.00043
 141,-0.22476780,0.13916256,-0.19718167,0.00009432,-0.00001257,0.000022
 68,0.00014165,-0.00009763,-0.00024977,0.22417532,-0.14340994,0.1998997
 2,-0.00036249,0.00171270,-0.00063448,0.00010961,-0.00003815,0.00008475
 ,0.00003948,-0.00023742,-0.00023830,-0.00032213,-0.00024168,0.00033961
 ,0.00072845,-0.00125645,0.00002308,-0.00047100,0.00016846,0.00028664,-
 0.00025159,0.00018509,-0.00021596,-0.00002377,0.00018743,-0.00022539,0
 .00602971,0.00487127,-0.01307164,-0.00309434,-0.00086014,0.00278725,-0
 .00414279,0.00416998,-0.00775450,0.00108664,-0.00283718,0.00139196,-0.
 00111255,0.00251581,-0.00055058,0.00365591,-0.00222618,0.00119885,0.00
 092111,-0.00046385,0.00116927,0.00120420,-0.00023869,0.00122835,-0.198
 87764,-0.05401443,0.25514409,-0.00077136,0.00094312,-0.00363874,-0.000
 05002,0.00015279,-0.00001182,0.19508977,0.00052638,-0.00031793,0.00025
 502,-0.00017898,-0.00007819,-0.00008559,-0.00006094,0.00005020,0.00004
 283,-0.00002321,0.00002021,-0.00004907,-0.00012417,-0.00113237,0.00107
 991,-0.00001229,0.00020750,-0.00013505,0.00007636,0.00024313,-0.000163
 63,0.00003931,0.00022840,-0.00029592,-0.00472157,-0.00258497,0.0150084
 0,-0.00124699,-0.00126943,-0.00121609,0.00230624,0.00121286,0.00103688
 ,-0.00054709,0.00035094,-0.00024550,0.00174915,-0.00184786,-0.00110036
 ,-0.00154010,-0.00235846,0.00050970,-0.00043303,0.00036274,-0.00028120
 ,-0.00044724,-0.00028545,-0.00019093,-0.04328052,-0.02073929,0.0683963
 1,0.00028797,0.00033304,-0.00111308,0.00001482,0.00001128,-0.00002269,
 0.04749765,0.02699141,-0.00037621,0.00033738,0.00018282,0.00008113,0.0
 0000717,0.00000432,0.00005989,-0.00010963,-0.00015623,0.00006538,-0.00
 000415,-0.00005906,0.00073359,0.00223031,0.00136438,0.00037998,-0.0001
 6358,-0.00046405,-0.00043635,0.00007872,-0.00034897,-0.00004170,-0.000
 20774,0.00017851,0.00868655,0.00922917,-0.02284380,0.00534282,-0.00212
 029,0.00187651,-0.00408042,0.00087298,0.00609648,0.00050305,-0.0004578
 0,-0.00075278,-0.00067816,-0.00463335,0.00025703,-0.00120936,0.0009659
 9,-0.00560078,0.00099892,-0.00022801,0.00015474,0.00021678,0.00007696,
 -0.00085323,0.22727576,0.07474358,-0.33201146,-0.00090992,0.00075625,-
 0.00084290,-0.00013122,-0.00005660,-0.00004729,-0.23674379,-0.08120571
 ,0.35421574,-0.00016465,0.00051398,0.00025158,0.00001972,-0.00005157,-
 0.00003580,0.00003213,-0.00013518,-0.00016371,0.00000586,-0.00008291,-
 0.00005665,0.00090850,0.00020512,-0.00035104,-0.00018860,0.00005503,0.
 00010115,-0.00022107,0.00005751,-0.00000401,-0.00015746,-0.00002841,0.
 00021459,0.00019338,-0.00087456,0.01834930,-0.00072123,0.00035046,-0.0
 0219139,-0.00090728,0.00054681,0.00130900,0.00022817,-0.00052811,-0.00
 013759,-0.00132678,-0.00052196,-0.00001977,0.00000392,0.00001003,-0.00
 058499,-0.00000941,0.00001209,0.00000962,0.00019163,-0.00005630,-0.000
 23752,0.00013028,0.00041433,0.00191496,-0.05117073,0.06694897,-0.14529
 897,-0.00009578,0.00003646,0.00006221,0.00061479,0.00011825,0.00026329
 ,0.05263462,0.00036756,0.00049350,-0.00032939,-0.00014147,-0.00009455,
 -0.00005541,-0.00003801,0.00000739,0.00002728,-0.00027104,-0.00013060,
 0.00026606,0.00000811,-0.00065127,-0.00140852,-0.00026873,0.00012295,0
 .00025458,0.00023649,-0.00001292,0.00021654,-0.00004933,0.00006127,0.0
 0034987,0.00233404,0.00178369,-0.01206698,0.00046858,-0.00101976,-0.00
 089537,-0.00023072,0.00085082,0.00030253,0.00012994,-0.00065172,0.0000
 9919,0.00055648,-0.00158894,0.00177551,0.00004171,-0.00016799,-0.00011
 090,0.00000407,0.00005125,0.00000222,0.00003762,-0.00020395,-0.0001245
 3,0.00075552,0.00068916,-0.00113330,0.06306300,-0.09192495,0.19950563,
 -0.00002361,0.00008466,0.00003619,0.00000986,0.00060225,-0.00011164,-0
 .06699005,0.09169971,0.00060768,-0.00055452,0.00035536,-0.00019706,-0.
 00006738,-0.00010968,-0.00006488,0.00007174,0.00006523,0.00000820,0.00
 007648,-0.00012989,-0.00097627,-0.00315458,-0.00080633,-0.00034804,0.0
 0023262,0.00033237,0.00045362,-0.00000933,0.00026322,0.00008556,0.0005
 0541,-0.00067026,-0.00483772,0.00735117,-0.02359032,-0.00331611,-0.000
 11174,0.00271935,0.00194257,-0.00058379,-0.00126096,-0.00071897,0.0009
 2116,-0.00003568,0.00083796,0.00449357,0.00377735,-0.00021795,-0.00005
 858,0.00061850,0.00005050,0.00002546,0.00000337,-0.00055117,-0.0000728
 5,0.00003563,0.00162916,0.00007746,-0.00053013,-0.12049918,0.17767249,
 -0.42841055,0.00007502,0.00000897,0.00007713,-0.00056866,-0.00022423,-
 0.00034998,0.12660574,-0.18659955,0.44764624\\-0.00049323,0.00031403,-
 0.00015253,0.00029825,0.00013194,-0.00000857,0.00005557,0.00007103,0.0
 0000148,0.00015278,-0.00000783,0.00004700,-0.00013331,0.00065400,0.000
 75757,0.00033067,-0.00014293,-0.00050082,-0.00006546,0.00000958,0.0000
 4066,-0.00002828,0.00001703,-0.00008036,-0.00009728,-0.00008679,0.0001
 7008,0.00040445,-0.00000111,0.00001066,-0.00031582,0.00028016,0.000002
 65,0.00022933,-0.00080764,0.00015387,-0.00029817,-0.00047437,-0.000289
 92,-0.00012609,-0.00004639,-0.00001572,-0.00077834,-0.00020578,0.00218
 190,0.00929500,0.00078592,-0.00014547,-0.00384036,-0.00079564,0.001628
 97,-0.00302627,0.00008697,-0.00059811,-0.00360241,-0.00021261,-0.00161
 694,0.00117958,0.00033078,-0.00023832,0.00085939,0.00009964,-0.0013480
 7\\\@


 SOME THINGS ARE EASY, THEY ARE ONLY HARD TO DO.
            -- A. EINSTEIN TO J. O. HIRSCHFELDER
 THE ONLY TROUBLE WITH A SURE THING IS THE UNCERTAINTY.
     -- FROM A TEABAG (BELONGING TO W.H.?)
 Job cpu time:       1 days  4 hours 42 minutes 38.6 seconds.
 File lengths (MBytes):  RWF=    507 Int=      0 D2E=      0 Chk=     12 Scr=      1
 Normal termination of Gaussian 09 at Wed Aug 23 13:08:43 2017.
103172.403u 186.402s 2:08:01.07 1345.6%	0+0k 661528+1573568io 23pf+0w
