 Entering Gaussian System, Link 0=/sw/chem/g09/g09
 Initial command:
 /sw/chem/g09/l1.exe "/scratch_local/salman/freq/Gau-10057.inp" -scrdir="/scratch_local/salman/freq/"
 Entering Link 1 = /sw/chem/g09/l1.exe PID=     10058.
  
 Copyright (c) 1988,1990,1992,1993,1995,1998,2003,2009,2013,
            Gaussian, Inc.  All Rights Reserved.
  
 This is part of the Gaussian(R) 09 program.  It is based on
 the Gaussian(R) 03 system (copyright 2003, Gaussian, Inc.),
 the Gaussian(R) 98 system (copyright 1998, Gaussian, Inc.),
 the Gaussian(R) 94 system (copyright 1995, Gaussian, Inc.),
 the Gaussian 92(TM) system (copyright 1992, Gaussian, Inc.),
 the Gaussian 90(TM) system (copyright 1990, Gaussian, Inc.),
 the Gaussian 88(TM) system (copyright 1988, Gaussian, Inc.),
 the Gaussian 86(TM) system (copyright 1986, Carnegie Mellon
 University), and the Gaussian 82(TM) system (copyright 1983,
 Carnegie Mellon University). Gaussian is a federally registered
 trademark of Gaussian, Inc.
  
 This software contains proprietary and confidential information,
 including trade secrets, belonging to Gaussian, Inc.
  
 This software is provided under written license and may be
 used, copied, transmitted, or stored only in accord with that
 written license.
  
 The following legend is applicable only to US Government
 contracts under FAR:
  
                    RESTRICTED RIGHTS LEGEND
  
 Use, reproduction and disclosure by the US Government is
 subject to restrictions as set forth in subparagraphs (a)
 and (c) of the Commercial Computer Software - Restricted
 Rights clause in FAR 52.227-19.
  
 Gaussian, Inc.
 340 Quinnipiac St., Bldg. 40, Wallingford CT 06492
  
  
 ---------------------------------------------------------------
 Warning -- This program may not be used in any manner that
 competes with the business of Gaussian, Inc. or will provide
 assistance to any competitor of Gaussian, Inc.  The licensee
 of this program is prohibited from giving any competitor of
 Gaussian, Inc. access to this program.  By using this program,
 the user acknowledges that Gaussian, Inc. is engaged in the
 business of creating and licensing software in the field of
 computational chemistry and represents and warrants to the
 licensee that it is not a competitor of Gaussian, Inc. and that
 it will not use this program in any manner prohibited above.
 ---------------------------------------------------------------
  

 Cite this work as:
 Gaussian 09, Revision D.01,
 M. J. Frisch, G. W. Trucks, H. B. Schlegel, G. E. Scuseria, 
 M. A. Robb, J. R. Cheeseman, G. Scalmani, V. Barone, B. Mennucci, 
 G. A. Petersson, H. Nakatsuji, M. Caricato, X. Li, H. P. Hratchian, 
 A. F. Izmaylov, J. Bloino, G. Zheng, J. L. Sonnenberg, M. Hada, 
 M. Ehara, K. Toyota, R. Fukuda, J. Hasegawa, M. Ishida, T. Nakajima, 
 Y. Honda, O. Kitao, H. Nakai, T. Vreven, J. A. Montgomery, Jr., 
 J. E. Peralta, F. Ogliaro, M. Bearpark, J. J. Heyd, E. Brothers, 
 K. N. Kudin, V. N. Staroverov, T. Keith, R. Kobayashi, J. Normand, 
 K. Raghavachari, A. Rendell, J. C. Burant, S. S. Iyengar, J. Tomasi, 
 M. Cossi, N. Rega, J. M. Millam, M. Klene, J. E. Knox, J. B. Cross, 
 V. Bakken, C. Adamo, J. Jaramillo, R. Gomperts, R. E. Stratmann, 
 O. Yazyev, A. J. Austin, R. Cammi, C. Pomelli, J. W. Ochterski, 
 R. L. Martin, K. Morokuma, V. G. Zakrzewski, G. A. Voth, 
 P. Salvador, J. J. Dannenberg, S. Dapprich, A. D. Daniels, 
 O. Farkas, J. B. Foresman, J. V. Ortiz, J. Cioslowski, 
 and D. J. Fox, Gaussian, Inc., Wallingford CT, 2013.
 
 ******************************************
 Gaussian 09:  ES64L-G09RevD.01 24-Apr-2013
                20-Jul-2017 
 ******************************************
 %nprocshared=12
 Will use up to   12 processors via shared memory.
 %chk=stuff.chk
 -------------------------------------------
 #p freq wb97xd/gen nosymm punch=derivatives
 -------------------------------------------
 1/10=4,30=1,38=1/1,3;
 2/12=2,15=1,17=6,18=5,40=1/2;
 3/5=7,11=2,16=1,25=1,30=1,71=2,74=-58,140=1/1,2,3;
 4//1;
 5/5=2,38=5,98=1/2;
 8/6=4,10=90,11=11/1;
 11/6=1,8=1,9=11,15=111,16=1,31=1/1,2,10;
 10/6=1,31=1/2;
 6/7=2,8=2,9=2,10=2,18=1,28=1/1;
 7/8=1,10=1,25=1,30=1/1,2,3,16;
 1/10=4,30=1/3;
 99/10=4/99;
 Leave Link    1 at Thu Jul 20 15:02:15 2017, MaxMem=           0 cpu:        29.3
 (Enter /sw/chem/g09/l101.exe)
 ---------------
 TiCl4 on silica
 ---------------
 Symbolic Z-matrix:
 Charge =  0 Multiplicity = 1
 Ti                    2.43913  -0.84286   0.09301 
 Cl                    4.29593  -0.07949   0.99214 
 Cl                    2.93202  -2.15437  -1.57545 
 Cl                    1.27765  -1.83859   1.64746 
 Ti                   -2.33183  -0.99916  -0.11589 
 Cl                   -0.90879  -1.80981  -1.57992 
 Cl                   -4.25878  -0.70402  -1.08882 
 Cl                   -2.57308  -2.34818   1.58552 
 Si                   -1.57063   2.20396   0.60238 
 O                     0.06585   2.45107   0.67397 
 Si                    1.24841   2.22292  -0.42869 
 O                     1.60349   0.5885   -0.4548 
 O                    -1.74792   0.54609   0.43756 
 O(Iso=100000000)      0.57819   2.72041  -1.84331 
 H(Iso=100000000)      1.12155   2.65121  -2.62664 
 O(Iso=100000000)      2.66727   3.00393  -0.19149 
 O(Iso=100000000)     -2.26519   2.96319  -0.65893 
 O(Iso=100000000)     -2.34256   2.69866   1.94634 
 H(Iso=100000000)      3.30297   2.57558   0.38107 
 H(Iso=100000000)     -1.68479   3.1174   -1.41049 
 H(Iso=100000000)     -2.06647   2.31509   2.77728 
 
 NAtoms=     21 NQM=       21 NQMF=       0 NMMI=      0 NMMIF=      0
                NMic=       0 NMicF=      0.
                    Isotopes and Nuclear Properties:
 (Nuclear quadrupole moments (NQMom) in fm**2, nuclear magnetic moments (NMagM)
  in nuclear magnetons)

  Atom         1           2           3           4           5           6           7           8           9          10
 IAtWgt=          48          35          35          35          48          35          35          35          28          16
 AtmWgt=  47.9479467  34.9688527  34.9688527  34.9688527  47.9479467  34.9688527  34.9688527  34.9688527  27.9769284  15.9949146
 NucSpn=           0           3           3           3           0           3           3           3           0           0
 AtZEff=   0.0000000   0.0000000   0.0000000   0.0000000   0.0000000   0.0000000   0.0000000   0.0000000   0.0000000   0.0000000
 NQMom=    0.0000000  -8.1650000  -8.1650000  -8.1650000   0.0000000  -8.1650000  -8.1650000  -8.1650000   0.0000000   0.0000000
 NMagM=    0.0000000   0.8218740   0.8218740   0.8218740   0.0000000   0.8218740   0.8218740   0.8218740   0.0000000   0.0000000
 AtZNuc=  22.0000000  17.0000000  17.0000000  17.0000000  22.0000000  17.0000000  17.0000000  17.0000000  14.0000000   8.0000000

  Atom        11          12          13          14          15          16          17          18          19          20
 IAtWgt=          28          16          16   100000000   100000000   100000000   100000000   100000000   100000000   100000000
 AtmWgt=  27.9769284  15.9949146  15.9949146************************************************************************************
 NucSpn=           0           0           0           0           0           0           0           0           0           0
 AtZEff=   0.0000000   0.0000000   0.0000000   0.0000000   0.0000000   0.0000000   0.0000000   0.0000000   0.0000000   0.0000000
 NQMom=    0.0000000   0.0000000   0.0000000   0.0000000   0.0000000   0.0000000   0.0000000   0.0000000   0.0000000   0.0000000
 NMagM=    0.0000000   0.0000000   0.0000000   0.0000000   0.0000000   0.0000000   0.0000000   0.0000000   0.0000000   0.0000000
 AtZNuc=  14.0000000   8.0000000   8.0000000   8.0000000   1.0000000   8.0000000   8.0000000   8.0000000   1.0000000   1.0000000

  Atom        21
 IAtWgt=   100000000
 AtmWgt=************
 NucSpn=           0
 AtZEff=   0.0000000
 NQMom=    0.0000000
 NMagM=    0.0000000
 AtZNuc=   1.0000000
 Leave Link  101 at Thu Jul 20 15:02:15 2017, MaxMem=    33554432 cpu:         1.2
 (Enter /sw/chem/g09/l103.exe)

 GradGradGradGradGradGradGradGradGradGradGradGradGradGradGradGradGradGrad
 Berny optimization.
 Initialization pass.
 Trust Radius=3.00D-01 FncErr=1.00D-07 GrdErr=1.00D-07
 Number of steps in this run=      2 maximum allowed number of steps=      2.
 GradGradGradGradGradGradGradGradGradGradGradGradGradGradGradGradGradGrad

 Leave Link  103 at Thu Jul 20 15:02:15 2017, MaxMem=    33554432 cpu:         0.3
 (Enter /sw/chem/g09/l202.exe)
                          Input orientation:                          
 ---------------------------------------------------------------------
 Center     Atomic      Atomic             Coordinates (Angstroms)
 Number     Number       Type             X           Y           Z
 ---------------------------------------------------------------------
      1         22           0        2.439128   -0.842855    0.093009
      2         17           0        4.295925   -0.079490    0.992139
      3         17           0        2.932017   -2.154371   -1.575452
      4         17           0        1.277648   -1.838594    1.647458
      5         22           0       -2.331833   -0.999159   -0.115888
      6         17           0       -0.908787   -1.809810   -1.579915
      7         17           0       -4.258776   -0.704021   -1.088821
      8         17           0       -2.573076   -2.348183    1.585516
      9         14           0       -1.570627    2.203957    0.602383
     10          8           0        0.065854    2.451072    0.673968
     11         14           0        1.248413    2.222921   -0.428690
     12          8           0        1.603485    0.588495   -0.454798
     13          8           0       -1.747920    0.546093    0.437557
     14          8           0        0.578194    2.720405   -1.843307
     15          1           0        1.121545    2.651206   -2.626643
     16          8           0        2.667272    3.003925   -0.191489
     17          8           0       -2.265191    2.963191   -0.658934
     18          8           0       -2.342562    2.698658    1.946338
     19          1           0        3.302969    2.575579    0.381072
     20          1           0       -1.684793    3.117403   -1.410487
     21          1           0       -2.066469    2.315089    2.777277
 ---------------------------------------------------------------------
                    Distance matrix (angstroms):
                    1          2          3          4          5
     1  Ti   0.000000
     2  Cl   2.199740   0.000000
     3  Cl   2.178710   3.571820   0.000000
     4  Cl   2.181019   3.554418   3.636454   0.000000
     5  Ti   4.778089   6.782381   5.583275   4.103949   0.000000
     6  Cl   3.865516   6.057928   3.856231   3.898367   2.196723
     7  Cl   6.802787   8.826287   7.351723   6.279050   2.178719
     8  Cl   5.442038   7.258253   6.351010   3.884790   2.184683
     9  Si   5.061686   6.307335   6.634138   5.054411   3.369763
    10  O    4.101207   4.939481   5.872383   4.562605   4.275146
    11  Si   3.330008   4.075191   4.828071   4.561485   4.826780
    12  O    1.745610   3.128748   3.247180   3.227447   4.257022
    13  O    4.424846   6.101391   5.765980   4.037902   1.742142
    14  O    4.461975   5.449834   5.419933   5.784388   5.028657
    15  H    4.619631   5.534345   5.241792   6.200856   5.617373
    16  O    3.864027   3.682517   5.347285   5.363093   6.404799
    17  O    6.097706   7.418369   7.351219   6.397522   3.999945
    18  O    6.232311   7.259347   7.985993   5.812220   4.233998
    19  H    3.537639   2.899785   5.132058   5.019022   6.691541
    20  H    5.911926   7.194562   7.009547   6.533681   4.363568
    21  H    6.121953   7.028569   7.994197   5.450935   4.407387
                    6          7          8          9         10
     6  Cl   0.000000
     7  Cl   3.561793   0.000000
     8  Cl   3.616581   3.563275   0.000000
     9  Si   4.616360   4.306118   4.763762   0.000000
    10  O    4.917828   5.635997   5.552272   1.656581   0.000000
    11  Si   4.716116   6.271514   6.289340   3.001742   1.632897
    12  O    3.650927   6.036447   5.498238   3.715150   2.666011
    13  O    3.213194   3.193276   3.221106   1.675444   2.640949
    14  O    4.775284   5.974297   6.883162   3.296293   2.582965
    15  H    5.011841   6.524592   7.509088   4.227816   3.471105
    16  O    6.155320   7.907225   7.698315   4.385199   2.796791
    17  O    5.046739   4.196144   5.774343   1.627813   2.733617
    18  O    5.900547   4.945937   5.064971   1.626907   2.735085
    19  H    6.388740   8.372356   7.760285   4.892752   3.252722
    20  H    4.990823   4.618673   6.295849   2.213383   2.802448
    21  H    6.110658   5.372890   4.839737   2.233467   2.998200
                   11         12         13         14         15
    11  Si   0.000000
    12  O    1.672754   0.000000
    13  O    3.541207   3.468431   0.000000
    14  O    1.642506   2.743031   3.916731   0.000000
    15  H    2.242882   3.033802   4.696238   0.955842   0.000000
    16  O    1.636885   2.652410   5.092206   2.678271   2.905797
    17  O    3.598114   4.543953   2.704113   3.089745   3.929274
    18  O    4.331534   5.078339   2.695098   4.784631   5.737111
    19  H    2.236355   2.745073   5.443665   3.520403   3.716272
    20  H    3.219895   4.256934   3.167158   2.337959   3.093850
    21  H    4.612501   5.186135   2.950442   5.339318   6.283212
                   16         17         18         19         20
    16  O    0.000000
    17  O    4.954731   0.000000
    18  O    5.455449   2.619810   0.000000
    19  H    0.956774   5.677699   5.859797   0.000000
    20  H    4.520985   0.962016   3.446198   5.327385   0.000000
    21  H    5.629953   3.502438   0.955935   5.885620   4.280976
                   21
    21  H    0.000000
 Symmetry turned off by external request.
 Stoichiometry    Cl6H4O7Si2Ti2
 Framework group  C1[X(Cl6H4O7Si2Ti2)]
 Deg. of freedom    57
 Full point group                 C1      NOp   1
 Rotational constants (GHZ):      0.0000003      0.0000001      0.0000001
 Leave Link  202 at Thu Jul 20 15:02:15 2017, MaxMem=    33554432 cpu:         0.1
 (Enter /sw/chem/g09/l301.exe)
 General basis read from cards:  (5D, 7F)
 Centers:       2      3      4      6      7      8      9     11     10     12
 Centers:      13     14     16     17     18     15     19     20     21
 TZVP
 ****
 Centers:       1      5
 S 8 1.00
     Exponent=  2.1157569025D+05 Coefficients=  2.3318151011D-04
     Exponent=  3.1714945058D+04 Coefficients=  1.8079690851D-03
     Exponent=  7.2175476543D+03 Coefficients=  9.3984311352D-03
     Exponent=  2.0429394247D+03 Coefficients=  3.8156853618D-02
     Exponent=  6.6512896208D+02 Coefficients=  1.2374757197D-01
     Exponent=  2.3874942264D+02 Coefficients=  2.9208551143D-01
     Exponent=  9.2508691001D+01 Coefficients=  4.1226800855D-01
     Exponent=  3.6403919209D+01 Coefficients=  2.1090534061D-01
 S 4 1.00
     Exponent=  2.3272624607D+02 Coefficients= -2.4920140738D-02
     Exponent=  7.1791209711D+01 Coefficients= -1.1746490087D-01
     Exponent=  1.1158534615D+01 Coefficients=  5.6503342318D-01
     Exponent=  4.6548135416D+00 Coefficients=  5.6211101812D-01
 S 2 1.00
     Exponent=  6.8034629174D+00 Coefficients= -2.3011425503D-01
     Exponent=  1.1201076403D+00 Coefficients=  7.2103186735D-01
 S 1 1.00
     Exponent=  4.8080118839D-01 Coefficients=  1.0000000000D+00
 S 1 1.00
     Exponent=  8.5157274977D-02 Coefficients=  1.0000000000D+00
 S 1 1.00
     Exponent=  3.2657477046D-02 Coefficients=  1.0000000000D+00
 P 6 1.00
     Exponent=  1.0631474732D+03 Coefficients=  2.4690839320D-03
     Exponent=  2.5156507061D+02 Coefficients=  1.9773345523D-02
     Exponent=  8.0408554854D+01 Coefficients=  9.0987976672D-02
     Exponent=  2.9768193269D+01 Coefficients=  2.5559900413D-01
     Exponent=  1.1736830556D+01 Coefficients=  4.0489386764D-01
     Exponent=  4.7142375230D+00 Coefficients=  2.3693402558D-01
 P 3 1.00
     Exponent=  1.7796803704D+01 Coefficients= -2.7878639615D-02
     Exponent=  2.4272698680D+00 Coefficients=  5.5672914668D-01
     Exponent=  9.6823445537D-01 Coefficients=  1.0055447350D+00
 P 1 1.00
     Exponent=  3.7056694165D-01 Coefficients=  1.0000000000D+00
 P 1 1.00
     Exponent=  1.0156100000D-01 Coefficients=  1.0000000000D+00
 D 4 1.00
     Exponent=  3.7713384723D+01 Coefficients=  1.1513835092D-02
     Exponent=  1.0692931184D+01 Coefficients=  6.7246343996D-02
     Exponent=  3.6728446990D+00 Coefficients=  2.1484207775D-01
     Exponent=  1.3588590303D+00 Coefficients=  3.8890892779D-01
 D 1 1.00
     Exponent=  4.9213295253D-01 Coefficients=  1.0000000000D+00
 D 1 1.00
     Exponent=  1.6330520653D-01 Coefficients=  1.0000000000D+00
 D 1 1.00
     Exponent=  5.4000000000D-02 Coefficients=  1.0000000000D+00
 F 1 1.00
     Exponent=  5.6200000000D-01 Coefficients=  1.0000000000D+00
 ****
 Ernie: Thresh=  0.10000D-02 Tol=  0.10000D-05 Strict=F.
   423 basis functions,   857 primitive gaussians,   452 cartesian basis functions
   117 alpha electrons      117 beta electrons
       nuclear repulsion energy      3508.1803317839 Hartrees.
 IExCor= 4639 DFT=T Ex+Corr=wB97XD ExCW=0 ScaHFX=  1.000000
 ScaDFX=  1.000000  1.000000  1.000000  1.000000 ScalE2=  1.000000  1.000000
 IRadAn=      0 IRanWt=     -1 IRanGd=            0 ICorTp=0 IEmpDi=121
  HFx wShort=  0.000000 wLong=  0.200000 cFull=  0.222036 cShort=  0.000000 cLong=  0.777964
  DFx wShort=  0.000000 wLong=  0.200000 cFull=  0.000000 cShort=  0.000000 cLong=  1.000000
 NAtoms=   21 NActive=   21 NUniq=   21 SFac= 1.00D+00 NAtFMM=   60 NAOKFM=F Big=F
 Integral buffers will be    131072 words long.
 Raffenetti 2 integral format.
 Two-electron integral symmetry is turned off.
 R6Disp:  Grimme-D2 Dispersion energy=       -0.0184244483 Hartrees.
 Nuclear repulsion after empirical dispersion term =     3508.1619073356 Hartrees.
 Leave Link  301 at Thu Jul 20 15:02:15 2017, MaxMem=    33554432 cpu:         1.1
 (Enter /sw/chem/g09/l302.exe)
 NPDir=0 NMtPBC=     1 NCelOv=     1 NCel=       1 NClECP=     1 NCelD=      1
         NCelK=      1 NCelE2=     1 NClLst=     1 CellRange=     0.0.
 One-electron integrals computed using PRISM.
 PrsmSu:  requested number of processors reduced to:   4 ShMem   1 Linda.
 NBasis=   423 RedAO= T EigKep=  1.23D-03  NBF=   423
 NBsUse=   423 1.00D-06 EigRej= -1.00D+00 NBFU=   423
 Precomputing XC quadrature grid using
 IXCGrd= 4 IRadAn=           0 IRanWt=          -1 IRanGd=           0 AccXCQ= 0.00D+00.
 Generated NRdTot=       0 NPtTot=           0 NUsed=           0 NTot=          32
 NSgBfM=   427   429   429   429   429 MxSgAt=    21 MxSgA2=    21.
 Leave Link  302 at Thu Jul 20 15:02:16 2017, MaxMem=    33554432 cpu:         6.6
 (Enter /sw/chem/g09/l303.exe)
 DipDrv:  MaxL=1.
 Leave Link  303 at Thu Jul 20 15:02:16 2017, MaxMem=    33554432 cpu:         1.0
 (Enter /sw/chem/g09/l401.exe)
 ExpMin= 3.27D-02 ExpMax= 2.12D+05 ExpMxC= 2.37D+03 IAcc=3 IRadAn=         5 AccDes= 0.00D+00
 Harris functional with IExCor= 4639 and IRadAn=       5 diagonalized for initial guess.
 HarFok:  IExCor= 4639 AccDes= 0.00D+00 IRadAn=         5 IDoV= 1 UseB2=F ITyADJ=14
 ICtDFT=  3500011 ScaDFX=  1.000000  1.000000  1.000000  1.000000
 FoFCou: FMM=F IPFlag=           0 FMFlag=      100000 FMFlg1=           0
         NFxFlg=           0 DoJE=T BraDBF=F KetDBF=T FulRan=T
         wScrn=  0.000000 ICntrl=     500 IOpCl=  0 I1Cent=   200000004 NGrid=           0
         NMat0=    1 NMatS0=      1 NMatT0=    0 NMatD0=    1 NMtDS0=    0 NMtDT0=    0
 Symmetry not used in FoFCou.
 Harris En= -5472.14670420818    
 JPrj=0 DoOrth=F DoCkMO=F.
 Leave Link  401 at Thu Jul 20 15:02:18 2017, MaxMem=    33554432 cpu:        28.0
 (Enter /sw/chem/g09/l502.exe)
 Closed shell SCF:
 Using DIIS extrapolation, IDIIS=  1040.
 Two-electron integral symmetry not used.
 IVT=      639640 IEndB=      639640 NGot=    33554432 MDV=    33136189
 LenX=    33136189 LenY=    32931433
 Requested convergence on RMS density matrix=1.00D-08 within 128 cycles.
 Requested convergence on MAX density matrix=1.00D-06.
 Requested convergence on             energy=1.00D-06.
 No special actions if energy rises.
 Fock matrices will be formed incrementally for  20 cycles.

 Cycle   1  Pass 1  IDiag  1:
 FoFJK:  IHMeth= 1 ICntrl=       0 DoSepK=T KAlg= 0 I1Cent=   0 FoldK=F
 IRaf=         1 NMat=   1 IRICut=       1 DoRegI=T DoRafI=F ISym2E= 0.
 FoFCou: FMM=F IPFlag=           0 FMFlag=      100000 FMFlg1=           0
         NFxFlg=           0 DoJE=T BraDBF=F KetDBF=F FulRan=T
         wScrn=  0.000000 ICntrl=     500 IOpCl=  0 I1Cent=           0 NGrid=           0
         NMat0=    1 NMatS0=      1 NMatT0=    0 NMatD0=    1 NMtDS0=    0 NMtDT0=    0
 Symmetry not used in FoFCou.
 E= -5567.77672858650    
 DIIS: error= 5.25D-02 at cycle   1 NSaved=   1.
 NSaved= 1 IEnMin= 1 EnMin= -5567.77672858650     IErMin= 1 ErrMin= 5.25D-02
 ErrMax= 5.25D-02  0.00D+00 EMaxC= 1.00D-01 BMatC= 4.68D+00 BMatP= 4.68D+00
 IDIUse=3 WtCom= 4.75D-01 WtEn= 5.25D-01
 Coeff-Com:  0.100D+01
 Coeff-En:   0.100D+01
 Coeff:      0.100D+01
 Gap=     0.534 Goal=   None    Shift=    0.000
 GapD=    0.534 DampG=2.000 DampE=0.250 DampFc=0.5000 IDamp=-1.
 Damping current iteration by 5.00D-01
 RMSDP=5.26D-03 MaxDP=2.67D-01              OVMax= 4.37D-01

 Cycle   2  Pass 1  IDiag  1:
 RMSU=  2.63D-03    CP:  1.00D+00
 E= -5566.21198779381     Delta-E=        1.564740792690 Rises=F Damp=T
 DIIS: error= 6.34D-02 at cycle   2 NSaved=   2.
 NSaved= 2 IEnMin= 1 EnMin= -5567.77672858650     IErMin= 1 ErrMin= 5.25D-02
 ErrMax= 6.34D-02  0.00D+00 EMaxC= 1.00D-01 BMatC= 2.64D+00 BMatP= 4.68D+00
 IDIUse=3 WtCom= 3.66D-01 WtEn= 6.34D-01
 Coeff-Com:  0.339D+00 0.661D+00
 Coeff-En:   0.758D+00 0.242D+00
 Coeff:      0.604D+00 0.396D+00
 Gap=     0.310 Goal=   None    Shift=    0.000
 RMSDP=2.24D-03 MaxDP=1.24D-01 DE= 1.56D+00 OVMax= 4.51D-01

 Cycle   3  Pass 1  IDiag  1:
 RMSU=  2.21D-03    CP:  1.01D+00  8.99D-01
 E= -5568.78975713440     Delta-E=       -2.577769340589 Rises=F Damp=F
 DIIS: error= 1.76D-02 at cycle   3 NSaved=   3.
 NSaved= 3 IEnMin= 3 EnMin= -5568.78975713440     IErMin= 3 ErrMin= 1.76D-02
 ErrMax= 1.76D-02  0.00D+00 EMaxC= 1.00D-01 BMatC= 4.60D-01 BMatP= 2.64D+00
 IDIUse=3 WtCom= 8.24D-01 WtEn= 1.76D-01
 Coeff-Com:  0.346D-01 0.262D+00 0.703D+00
 Coeff-En:   0.000D+00 0.408D-02 0.996D+00
 Coeff:      0.285D-01 0.217D+00 0.755D+00
 Gap=     0.279 Goal=   None    Shift=    0.000
 RMSDP=1.39D-03 MaxDP=8.18D-02 DE=-2.58D+00 OVMax= 1.04D-01

 Cycle   4  Pass 1  IDiag  1:
 RMSU=  8.57D-04    CP:  1.01D+00  9.05D-01  5.05D-01
 E= -5569.06068298022     Delta-E=       -0.270925845820 Rises=F Damp=F
 DIIS: error= 9.30D-03 at cycle   4 NSaved=   4.
 NSaved= 4 IEnMin= 4 EnMin= -5569.06068298022     IErMin= 4 ErrMin= 9.30D-03
 ErrMax= 9.30D-03  0.00D+00 EMaxC= 1.00D-01 BMatC= 6.89D-02 BMatP= 4.60D-01
 IDIUse=3 WtCom= 9.07D-01 WtEn= 9.30D-02
 Coeff-Com:  0.154D-01 0.313D-02 0.276D+00 0.705D+00
 Coeff-En:   0.000D+00 0.000D+00 0.148D+00 0.852D+00
 Coeff:      0.140D-01 0.284D-02 0.264D+00 0.719D+00
 Gap=     0.351 Goal=   None    Shift=    0.000
 RMSDP=5.38D-04 MaxDP=2.94D-02 DE=-2.71D-01 OVMax= 4.24D-02

 Cycle   5  Pass 1  IDiag  1:
 RMSU=  3.19D-04    CP:  1.01D+00  9.08D-01  6.64D-01  7.04D-01
 E= -5569.10889723078     Delta-E=       -0.048214250555 Rises=F Damp=F
 DIIS: error= 2.77D-03 at cycle   5 NSaved=   5.
 NSaved= 5 IEnMin= 5 EnMin= -5569.10889723078     IErMin= 5 ErrMin= 2.77D-03
 ErrMax= 2.77D-03  0.00D+00 EMaxC= 1.00D-01 BMatC= 7.88D-03 BMatP= 6.89D-02
 IDIUse=3 WtCom= 9.72D-01 WtEn= 2.77D-02
 Coeff-Com:  0.698D-02-0.598D-02 0.129D+00 0.417D+00 0.453D+00
 Coeff-En:   0.000D+00 0.000D+00 0.000D+00 0.454D-01 0.955D+00
 Coeff:      0.679D-02-0.581D-02 0.125D+00 0.407D+00 0.467D+00
 Gap=     0.336 Goal=   None    Shift=    0.000
 RMSDP=1.67D-04 MaxDP=7.69D-03 DE=-4.82D-02 OVMax= 1.51D-02

 Cycle   6  Pass 1  IDiag  1:
 RMSU=  7.62D-05    CP:  1.01D+00  9.17D-01  6.45D-01  8.11D-01  6.66D-01
 E= -5569.11544973309     Delta-E=       -0.006552502309 Rises=F Damp=F
 DIIS: error= 5.42D-04 at cycle   6 NSaved=   6.
 NSaved= 6 IEnMin= 6 EnMin= -5569.11544973309     IErMin= 6 ErrMin= 5.42D-04
 ErrMax= 5.42D-04  0.00D+00 EMaxC= 1.00D-01 BMatC= 4.65D-04 BMatP= 7.88D-03
 IDIUse=3 WtCom= 9.95D-01 WtEn= 5.42D-03
 Coeff-Com:  0.341D-02-0.791D-02 0.170D-01 0.829D-01 0.187D+00 0.718D+00
 Coeff-En:   0.000D+00 0.000D+00 0.000D+00 0.000D+00 0.000D+00 0.100D+01
 Coeff:      0.340D-02-0.787D-02 0.169D-01 0.825D-01 0.186D+00 0.719D+00
 Gap=     0.335 Goal=   None    Shift=    0.000
 RMSDP=3.66D-05 MaxDP=1.92D-03 DE=-6.55D-03 OVMax= 2.65D-03

 Cycle   7  Pass 1  IDiag  1:
 RMSU=  3.04D-05    CP:  1.01D+00  9.13D-01  6.48D-01  8.22D-01  7.08D-01
                    CP:  9.58D-01
 E= -5569.11582083729     Delta-E=       -0.000371104205 Rises=F Damp=F
 DIIS: error= 2.47D-04 at cycle   7 NSaved=   7.
 NSaved= 7 IEnMin= 7 EnMin= -5569.11582083729     IErMin= 7 ErrMin= 2.47D-04
 ErrMax= 2.47D-04  0.00D+00 EMaxC= 1.00D-01 BMatC= 4.47D-05 BMatP= 4.65D-04
 IDIUse=3 WtCom= 9.98D-01 WtEn= 2.47D-03
 Coeff-Com:  0.155D-02-0.344D-02-0.263D-02-0.782D-02 0.393D-02 0.157D+00
 Coeff-Com:  0.852D+00
 Coeff-En:   0.000D+00 0.000D+00 0.000D+00 0.000D+00 0.000D+00 0.000D+00
 Coeff-En:   0.100D+01
 Coeff:      0.154D-02-0.343D-02-0.263D-02-0.780D-02 0.392D-02 0.156D+00
 Coeff:      0.852D+00
 Gap=     0.336 Goal=   None    Shift=    0.000
 RMSDP=1.54D-05 MaxDP=5.07D-04 DE=-3.71D-04 OVMax= 1.27D-03

 Cycle   8  Pass 1  IDiag  1:
 RMSU=  8.64D-06    CP:  1.01D+00  9.12D-01  6.49D-01  8.30D-01  7.25D-01
                    CP:  1.06D+00  1.12D+00
 E= -5569.11587045798     Delta-E=       -0.000049620687 Rises=F Damp=F
 DIIS: error= 9.60D-05 at cycle   8 NSaved=   8.
 NSaved= 8 IEnMin= 8 EnMin= -5569.11587045798     IErMin= 8 ErrMin= 9.60D-05
 ErrMax= 9.60D-05  0.00D+00 EMaxC= 1.00D-01 BMatC= 6.83D-06 BMatP= 4.47D-05
 IDIUse=1 WtCom= 1.00D+00 WtEn= 0.00D+00
 Coeff-Com:  0.540D-03-0.117D-02-0.200D-02-0.945D-02-0.150D-01-0.109D-01
 Coeff-Com:  0.337D+00 0.701D+00
 Coeff:      0.540D-03-0.117D-02-0.200D-02-0.945D-02-0.150D-01-0.109D-01
 Coeff:      0.337D+00 0.701D+00
 Gap=     0.336 Goal=   None    Shift=    0.000
 RMSDP=6.71D-06 MaxDP=3.00D-04 DE=-4.96D-05 OVMax= 6.99D-04

 Cycle   9  Pass 1  IDiag  1:
 RMSU=  4.91D-06    CP:  1.01D+00  9.12D-01  6.50D-01  8.32D-01  7.29D-01
                    CP:  1.09D+00  1.22D+00  1.00D+00
 E= -5569.11587788991     Delta-E=       -0.000007431930 Rises=F Damp=F
 DIIS: error= 6.19D-05 at cycle   9 NSaved=   9.
 NSaved= 9 IEnMin= 9 EnMin= -5569.11587788991     IErMin= 9 ErrMin= 6.19D-05
 ErrMax= 6.19D-05  0.00D+00 EMaxC= 1.00D-01 BMatC= 3.44D-06 BMatP= 6.83D-06
 IDIUse=1 WtCom= 1.00D+00 WtEn= 0.00D+00
 Coeff-Com: -0.254D-04 0.379D-04-0.707D-03-0.445D-02-0.117D-01-0.541D-01
 Coeff-Com: -0.557D-02 0.523D+00 0.553D+00
 Coeff:     -0.254D-04 0.379D-04-0.707D-03-0.445D-02-0.117D-01-0.541D-01
 Coeff:     -0.557D-02 0.523D+00 0.553D+00
 Gap=     0.336 Goal=   None    Shift=    0.000
 RMSDP=4.06D-06 MaxDP=2.12D-04 DE=-7.43D-06 OVMax= 5.05D-04

 Cycle  10  Pass 1  IDiag  1:
 RMSU=  2.24D-06    CP:  1.01D+00  9.11D-01  6.50D-01  8.33D-01  7.30D-01
                    CP:  1.10D+00  1.27D+00  1.24D+00  7.27D-01
 E= -5569.11588169063     Delta-E=       -0.000003800717 Rises=F Damp=F
 DIIS: error= 2.61D-05 at cycle  10 NSaved=  10.
 NSaved=10 IEnMin=10 EnMin= -5569.11588169063     IErMin=10 ErrMin= 2.61D-05
 ErrMax= 2.61D-05  0.00D+00 EMaxC= 1.00D-01 BMatC= 4.34D-07 BMatP= 3.44D-06
 IDIUse=1 WtCom= 1.00D+00 WtEn= 0.00D+00
 Coeff-Com: -0.153D-03 0.280D-03-0.255D-03-0.980D-03-0.363D-02-0.272D-01
 Coeff-Com: -0.662D-01 0.152D+00 0.305D+00 0.641D+00
 Coeff:     -0.153D-03 0.280D-03-0.255D-03-0.980D-03-0.363D-02-0.272D-01
 Coeff:     -0.662D-01 0.152D+00 0.305D+00 0.641D+00
 Gap=     0.336 Goal=   None    Shift=    0.000
 RMSDP=1.59D-06 MaxDP=9.21D-05 DE=-3.80D-06 OVMax= 2.26D-04

 Cycle  11  Pass 1  IDiag  1:
 RMSU=  8.83D-07    CP:  1.01D+00  9.11D-01  6.50D-01  8.33D-01  7.30D-01
                    CP:  1.11D+00  1.29D+00  1.30D+00  9.00D-01  1.01D+00
 E= -5569.11588226481     Delta-E=       -0.000000574182 Rises=F Damp=F
 DIIS: error= 1.21D-05 at cycle  11 NSaved=  11.
 NSaved=11 IEnMin=11 EnMin= -5569.11588226481     IErMin=11 ErrMin= 1.21D-05
 ErrMax= 1.21D-05  0.00D+00 EMaxC= 1.00D-01 BMatC= 7.80D-08 BMatP= 4.34D-07
 IDIUse=1 WtCom= 1.00D+00 WtEn= 0.00D+00
 Coeff-Com: -0.859D-04 0.140D-03-0.129D-03 0.422D-03 0.116D-02 0.207D-02
 Coeff-Com: -0.191D-01-0.646D-01-0.221D-01 0.229D+00 0.873D+00
 Coeff:     -0.859D-04 0.140D-03-0.129D-03 0.422D-03 0.116D-02 0.207D-02
 Coeff:     -0.191D-01-0.646D-01-0.221D-01 0.229D+00 0.873D+00
 Gap=     0.336 Goal=   None    Shift=    0.000
 RMSDP=8.45D-07 MaxDP=3.10D-05 DE=-5.74D-07 OVMax= 1.05D-04

 Cycle  12  Pass 1  IDiag  1:
 RMSU=  3.48D-07    CP:  1.01D+00  9.11D-01  6.50D-01  8.33D-01  7.31D-01
                    CP:  1.11D+00  1.30D+00  1.35D+00  9.62D-01  1.23D+00
                    CP:  1.16D+00
 E= -5569.11588239782     Delta-E=       -0.000000133012 Rises=F Damp=F
 DIIS: error= 2.52D-06 at cycle  12 NSaved=  12.
 NSaved=12 IEnMin=12 EnMin= -5569.11588239782     IErMin=12 ErrMin= 2.52D-06
 ErrMax= 2.52D-06  0.00D+00 EMaxC= 1.00D-01 BMatC= 6.03D-09 BMatP= 7.80D-08
 IDIUse=1 WtCom= 1.00D+00 WtEn= 0.00D+00
 Coeff-Com: -0.105D-04 0.174D-04-0.426D-04 0.919D-04 0.533D-03 0.343D-02
 Coeff-Com:  0.497D-02-0.315D-01-0.441D-01-0.369D-01 0.202D+00 0.902D+00
 Coeff:     -0.105D-04 0.174D-04-0.426D-04 0.919D-04 0.533D-03 0.343D-02
 Coeff:      0.497D-02-0.315D-01-0.441D-01-0.369D-01 0.202D+00 0.902D+00
 Gap=     0.336 Goal=   None    Shift=    0.000
 RMSDP=2.84D-07 MaxDP=7.86D-06 DE=-1.33D-07 OVMax= 3.45D-05

 Cycle  13  Pass 1  IDiag  1:
 RMSU=  1.24D-07    CP:  1.01D+00  9.11D-01  6.50D-01  8.33D-01  7.30D-01
                    CP:  1.11D+00  1.30D+00  1.35D+00  9.80D-01  1.30D+00
                    CP:  1.32D+00  1.08D+00
 E= -5569.11588240925     Delta-E=       -0.000000011432 Rises=F Damp=F
 DIIS: error= 7.79D-07 at cycle  13 NSaved=  13.
 NSaved=13 IEnMin=13 EnMin= -5569.11588240925     IErMin=13 ErrMin= 7.79D-07
 ErrMax= 7.79D-07  0.00D+00 EMaxC= 1.00D-01 BMatC= 9.27D-10 BMatP= 6.03D-09
 IDIUse=1 WtCom= 1.00D+00 WtEn= 0.00D+00
 Coeff-Com:  0.349D-05-0.376D-05 0.564D-06-0.153D-04 0.553D-04 0.103D-02
 Coeff-Com:  0.365D-02-0.536D-02-0.145D-01-0.386D-01-0.812D-02 0.386D+00
 Coeff-Com:  0.676D+00
 Coeff:      0.349D-05-0.376D-05 0.564D-06-0.153D-04 0.553D-04 0.103D-02
 Coeff:      0.365D-02-0.536D-02-0.145D-01-0.386D-01-0.812D-02 0.386D+00
 Coeff:      0.676D+00
 Gap=     0.336 Goal=   None    Shift=    0.000
 RMSDP=7.21D-08 MaxDP=2.21D-06 DE=-1.14D-08 OVMax= 7.59D-06

 Cycle  14  Pass 1  IDiag  1:
 RMSU=  4.80D-08    CP:  1.01D+00  9.11D-01  6.50D-01  8.33D-01  7.30D-01
                    CP:  1.11D+00  1.30D+00  1.36D+00  9.84D-01  1.31D+00
                    CP:  1.35D+00  1.17D+00  9.84D-01
 E= -5569.11588241062     Delta-E=       -0.000000001366 Rises=F Damp=F
 DIIS: error= 3.25D-07 at cycle  14 NSaved=  14.
 NSaved=14 IEnMin=14 EnMin= -5569.11588241062     IErMin=14 ErrMin= 3.25D-07
 ErrMax= 3.25D-07  0.00D+00 EMaxC= 1.00D-01 BMatC= 1.08D-10 BMatP= 9.27D-10
 IDIUse=1 WtCom= 1.00D+00 WtEn= 0.00D+00
 Coeff-Com:  0.297D-05-0.376D-05 0.117D-04-0.287D-05-0.347D-04-0.300D-04
 Coeff-Com:  0.306D-03 0.174D-02 0.519D-03-0.761D-02-0.252D-01 0.204D-01
 Coeff-Com:  0.210D+00 0.800D+00
 Coeff:      0.297D-05-0.376D-05 0.117D-04-0.287D-05-0.347D-04-0.300D-04
 Coeff:      0.306D-03 0.174D-02 0.519D-03-0.761D-02-0.252D-01 0.204D-01
 Coeff:      0.210D+00 0.800D+00
 Gap=     0.336 Goal=   None    Shift=    0.000
 RMSDP=2.95D-08 MaxDP=8.53D-07 DE=-1.37D-09 OVMax= 3.70D-06

 Cycle  15  Pass 1  IDiag  1:
 RMSU=  1.73D-08    CP:  1.01D+00  9.11D-01  6.50D-01  8.33D-01  7.30D-01
                    CP:  1.11D+00  1.30D+00  1.36D+00  9.84D-01  1.31D+00
                    CP:  1.36D+00  1.21D+00  1.10D+00  1.14D+00
 E= -5569.11588241091     Delta-E=       -0.000000000295 Rises=F Damp=F
 DIIS: error= 1.75D-07 at cycle  15 NSaved=  15.
 NSaved=15 IEnMin=15 EnMin= -5569.11588241091     IErMin=15 ErrMin= 1.75D-07
 ErrMax= 1.75D-07  0.00D+00 EMaxC= 1.00D-01 BMatC= 2.34D-11 BMatP= 1.08D-10
 IDIUse=1 WtCom= 1.00D+00 WtEn= 0.00D+00
 Coeff-Com:  0.935D-06-0.132D-05 0.668D-05 0.671D-05-0.194D-04-0.151D-03
 Coeff-Com: -0.548D-03 0.133D-02 0.248D-02 0.354D-02-0.680D-02-0.559D-01
 Coeff-Com: -0.400D-01 0.298D+00 0.798D+00
 Coeff:      0.935D-06-0.132D-05 0.668D-05 0.671D-05-0.194D-04-0.151D-03
 Coeff:     -0.548D-03 0.133D-02 0.248D-02 0.354D-02-0.680D-02-0.559D-01
 Coeff:     -0.400D-01 0.298D+00 0.798D+00
 Gap=     0.336 Goal=   None    Shift=    0.000
 RMSDP=1.46D-08 MaxDP=4.19D-07 DE=-2.95D-10 OVMax= 1.78D-06

 Cycle  16  Pass 1  IDiag  1:
 RMSU=  7.50D-09    CP:  1.01D+00  9.11D-01  6.50D-01  8.33D-01  7.30D-01
                    CP:  1.11D+00  1.30D+00  1.36D+00  9.85D-01  1.31D+00
                    CP:  1.36D+00  1.21D+00  1.16D+00  1.30D+00  1.01D+00
 E= -5569.11588241076     Delta-E=        0.000000000153 Rises=F Damp=F
 DIIS: error= 6.01D-08 at cycle  16 NSaved=  16.
 NSaved=16 IEnMin=15 EnMin= -5569.11588241091     IErMin=16 ErrMin= 6.01D-08
 ErrMax= 6.01D-08  0.00D+00 EMaxC= 1.00D-01 BMatC= 3.67D-12 BMatP= 2.34D-11
 IDIUse=1 WtCom= 1.00D+00 WtEn= 0.00D+00
 Coeff-Com:  0.629D-07-0.139D-06 0.137D-05 0.341D-05-0.492D-05-0.544D-04
 Coeff-Com: -0.264D-03 0.280D-03 0.895D-03 0.257D-02 0.104D-02-0.264D-01
 Coeff-Com: -0.471D-01 0.572D-03 0.333D+00 0.735D+00
 Coeff:      0.629D-07-0.139D-06 0.137D-05 0.341D-05-0.492D-05-0.544D-04
 Coeff:     -0.264D-03 0.280D-03 0.895D-03 0.257D-02 0.104D-02-0.264D-01
 Coeff:     -0.471D-01 0.572D-03 0.333D+00 0.735D+00
 Gap=     0.336 Goal=   None    Shift=    0.000
 RMSDP=5.74D-09 MaxDP=1.90D-07 DE= 1.53D-10 OVMax= 6.98D-07

 SCF Done:  E(RwB97XD) =  -5569.11588241     A.U. after   16 cycles
            NFock= 16  Conv=0.57D-08     -V/T= 2.0023
 KE= 5.556245929412D+03 PE=-2.023028296282D+04 EE= 5.596759243665D+03
 Leave Link  502 at Thu Jul 20 15:04:56 2017, MaxMem=    33554432 cpu:      1884.6
 (Enter /sw/chem/g09/l801.exe)
 DoSCS=F DFT=T ScalE2(SS,OS)=  1.000000  1.000000
 Range of M.O.s used for correlation:     1   423
 NBasis=   423 NAE=   117 NBE=   117 NFC=     0 NFV=     0
 NROrb=    423 NOA=   117 NOB=   117 NVA=   306 NVB=   306
 Leave Link  801 at Thu Jul 20 15:04:56 2017, MaxMem=    33554432 cpu:         0.2
 (Enter /sw/chem/g09/l1101.exe)
 Using compressed storage, NAtomX=    21.
 Will process     22 centers per pass.
 PrsmSu:  requested number of processors reduced to:   3 ShMem   1 Linda.
 PrsmSu:  requested number of processors reduced to:   3 ShMem   1 Linda.
 R6Disp: Adding Grimme-D2 dispersion energy 1st derivatives to the gradient.
 Leave Link 1101 at Thu Jul 20 15:04:57 2017, MaxMem=    33554432 cpu:         5.5
 (Enter /sw/chem/g09/l1102.exe)
 Symmetrizing basis deriv contribution to polar:
 IMax=3 JMax=2 DiffMx= 0.00D+00
 Leave Link 1102 at Thu Jul 20 15:04:57 2017, MaxMem=    33554432 cpu:         0.9
 (Enter /sw/chem/g09/l1110.exe)
 Forming Gx(P) for the SCF density, NAtomX=    21.
 Integral derivatives from FoFJK, PRISM(SPDF).
 Do as many integral derivatives as possible in FoFJK.
 G2DrvN: MDV=      33554160.
 G2DrvN: will do     1 centers at a time, making   22 passes.
 Estimated number of processors is:    7
 G2DrvN:  IPasSy=1 do centers    0 through    0.
 Calling FoFCou, ICntrl=  3107 FMM=F I1Cent=   0 AccDes= 0.00D+00.
 FoFJK:  IHMeth= 1 ICntrl=    3107 DoSepK=T KAlg= 0 I1Cent=   0 FoldK=F
 IRaf=         1 NMat=   1 IRICut=       1 DoRegI=T DoRafI=F ISym2E= 0.
 FoFCou: FMM=F IPFlag=           0 FMFlag=      100000 FMFlg1=           0
         NFxFlg=           0 DoJE=F BraDBF=F KetDBF=F FulRan=T
         wScrn=  0.000000 ICntrl=    3507 IOpCl=  0 I1Cent=           0 NGrid=           0
         NMat0=    1 NMatS0=      1 NMatT0=    0 NMatD0=    1 NMtDS0=    0 NMtDT0=    0
 Symmetry not used in FoFCou.
 CoulSu:  requested number of processors reduced to:   7 ShMem   1 Linda.
 CoulSu:  requested number of processors reduced to:   7 ShMem   1 Linda.
 G2DrvN:  IPasSy=1 do centers    1 through    1.
 Calling FoFCou, ICntrl=  3107 FMM=F I1Cent=   0 AccDes= 0.00D+00.
 CoulSu:  requested number of processors reduced to:   7 ShMem   1 Linda.
 CoulSu:  requested number of processors reduced to:   7 ShMem   1 Linda.
 G2DrvN:  IPasSy=1 do centers    2 through    2.
 Calling FoFCou, ICntrl=  3107 FMM=F I1Cent=   0 AccDes= 0.00D+00.
 CoulSu:  requested number of processors reduced to:   7 ShMem   1 Linda.
 CoulSu:  requested number of processors reduced to:   7 ShMem   1 Linda.
 G2DrvN:  IPasSy=1 do centers    3 through    3.
 Calling FoFCou, ICntrl=  3107 FMM=F I1Cent=   0 AccDes= 0.00D+00.
 CoulSu:  requested number of processors reduced to:   7 ShMem   1 Linda.
 CoulSu:  requested number of processors reduced to:   7 ShMem   1 Linda.
 G2DrvN:  IPasSy=1 do centers    4 through    4.
 Calling FoFCou, ICntrl=  3107 FMM=F I1Cent=   0 AccDes= 0.00D+00.
 CoulSu:  requested number of processors reduced to:   7 ShMem   1 Linda.
 CoulSu:  requested number of processors reduced to:   7 ShMem   1 Linda.
 G2DrvN:  IPasSy=1 do centers    5 through    5.
 Calling FoFCou, ICntrl=  3107 FMM=F I1Cent=   0 AccDes= 0.00D+00.
 CoulSu:  requested number of processors reduced to:   7 ShMem   1 Linda.
 CoulSu:  requested number of processors reduced to:   7 ShMem   1 Linda.
 G2DrvN:  IPasSy=1 do centers    6 through    6.
 Calling FoFCou, ICntrl=  3107 FMM=F I1Cent=   0 AccDes= 0.00D+00.
 CoulSu:  requested number of processors reduced to:   7 ShMem   1 Linda.
 CoulSu:  requested number of processors reduced to:   7 ShMem   1 Linda.
 G2DrvN:  IPasSy=1 do centers    7 through    7.
 Calling FoFCou, ICntrl=  3107 FMM=F I1Cent=   0 AccDes= 0.00D+00.
 CoulSu:  requested number of processors reduced to:   7 ShMem   1 Linda.
 CoulSu:  requested number of processors reduced to:   7 ShMem   1 Linda.
 G2DrvN:  IPasSy=1 do centers    8 through    8.
 Calling FoFCou, ICntrl=  3107 FMM=F I1Cent=   0 AccDes= 0.00D+00.
 CoulSu:  requested number of processors reduced to:   7 ShMem   1 Linda.
 CoulSu:  requested number of processors reduced to:   7 ShMem   1 Linda.
 G2DrvN:  IPasSy=1 do centers    9 through    9.
 Calling FoFCou, ICntrl=  3107 FMM=F I1Cent=   0 AccDes= 0.00D+00.
 CoulSu:  requested number of processors reduced to:   7 ShMem   1 Linda.
 CoulSu:  requested number of processors reduced to:   7 ShMem   1 Linda.
 G2DrvN:  IPasSy=1 do centers   10 through   10.
 Calling FoFCou, ICntrl=  3107 FMM=F I1Cent=   0 AccDes= 0.00D+00.
 CoulSu:  requested number of processors reduced to:   7 ShMem   1 Linda.
 CoulSu:  requested number of processors reduced to:   7 ShMem   1 Linda.
 G2DrvN:  IPasSy=1 do centers   11 through   11.
 Calling FoFCou, ICntrl=  3107 FMM=F I1Cent=   0 AccDes= 0.00D+00.
 CoulSu:  requested number of processors reduced to:   7 ShMem   1 Linda.
 CoulSu:  requested number of processors reduced to:   7 ShMem   1 Linda.
 G2DrvN:  IPasSy=1 do centers   12 through   12.
 Calling FoFCou, ICntrl=  3107 FMM=F I1Cent=   0 AccDes= 0.00D+00.
 CoulSu:  requested number of processors reduced to:   7 ShMem   1 Linda.
 CoulSu:  requested number of processors reduced to:   7 ShMem   1 Linda.
 G2DrvN:  IPasSy=1 do centers   13 through   13.
 Calling FoFCou, ICntrl=  3107 FMM=F I1Cent=   0 AccDes= 0.00D+00.
 CoulSu:  requested number of processors reduced to:   7 ShMem   1 Linda.
 CoulSu:  requested number of processors reduced to:   7 ShMem   1 Linda.
 G2DrvN:  IPasSy=1 do centers   14 through   14.
 Calling FoFCou, ICntrl=  3107 FMM=F I1Cent=   0 AccDes= 0.00D+00.
 CoulSu:  requested number of processors reduced to:   7 ShMem   1 Linda.
 CoulSu:  requested number of processors reduced to:   7 ShMem   1 Linda.
 G2DrvN:  IPasSy=1 do centers   15 through   15.
 Calling FoFCou, ICntrl=  3107 FMM=F I1Cent=   0 AccDes= 0.00D+00.
 CoulSu:  requested number of processors reduced to:   7 ShMem   1 Linda.
 CoulSu:  requested number of processors reduced to:   7 ShMem   1 Linda.
 G2DrvN:  IPasSy=1 do centers   16 through   16.
 Calling FoFCou, ICntrl=  3107 FMM=F I1Cent=   0 AccDes= 0.00D+00.
 CoulSu:  requested number of processors reduced to:   7 ShMem   1 Linda.
 CoulSu:  requested number of processors reduced to:   7 ShMem   1 Linda.
 G2DrvN:  IPasSy=1 do centers   17 through   17.
 Calling FoFCou, ICntrl=  3107 FMM=F I1Cent=   0 AccDes= 0.00D+00.
 CoulSu:  requested number of processors reduced to:   7 ShMem   1 Linda.
 CoulSu:  requested number of processors reduced to:   7 ShMem   1 Linda.
 G2DrvN:  IPasSy=1 do centers   18 through   18.
 Calling FoFCou, ICntrl=  3107 FMM=F I1Cent=   0 AccDes= 0.00D+00.
 CoulSu:  requested number of processors reduced to:   7 ShMem   1 Linda.
 CoulSu:  requested number of processors reduced to:   7 ShMem   1 Linda.
 G2DrvN:  IPasSy=1 do centers   19 through   19.
 Calling FoFCou, ICntrl=  3107 FMM=F I1Cent=   0 AccDes= 0.00D+00.
 CoulSu:  requested number of processors reduced to:   7 ShMem   1 Linda.
 CoulSu:  requested number of processors reduced to:   7 ShMem   1 Linda.
 G2DrvN:  IPasSy=1 do centers   20 through   20.
 Calling FoFCou, ICntrl=  3107 FMM=F I1Cent=   0 AccDes= 0.00D+00.
 CoulSu:  requested number of processors reduced to:   7 ShMem   1 Linda.
 CoulSu:  requested number of processors reduced to:   7 ShMem   1 Linda.
 G2DrvN:  IPasSy=1 do centers   21 through   21.
 Calling FoFCou, ICntrl=  3107 FMM=F I1Cent=   0 AccDes= 0.00D+00.
 CoulSu:  requested number of processors reduced to:   7 ShMem   1 Linda.
 CoulSu:  requested number of processors reduced to:   7 ShMem   1 Linda.
 End of G2Drv F.D. properties file   721 does not exist.
 End of G2Drv F.D. properties file   722 does not exist.
 End of G2Drv F.D. properties file   788 does not exist.
 Leave Link 1110 at Thu Jul 20 15:12:09 2017, MaxMem=    33554432 cpu:      3599.0
 (Enter /sw/chem/g09/l1002.exe)
 Minotr:  Closed shell wavefunction.
          IDoAtm=111111111111111111111
          Direct CPHF calculation.
          Differentiating once with respect to electric field.
                with respect to dipole field.
          Differentiating once with respect to nuclear coordinates.
          Requested convergence is 1.0D-08 RMS, and 1.0D-07 maximum.
          Secondary convergence is 1.0D-12 RMS, and 1.0D-12 maximum.
          NewPWx=T KeepS1=F KeepF1=F KeepIn=T MapXYZ=F SortEE=F KeepMc=T.
          MDV=      33553795 using IRadAn=       2.
 Generate precomputed XC quadrature information.
          Solving linear equations simultaneously, MaxMat=       0.
 FoFJK:  IHMeth= 1 ICntrl=       0 DoSepK=T KAlg= 0 I1Cent=   0 FoldK=F
 IRaf=         1 NMat=   5 IRICut=       1 DoRegI=T DoRafI=F ISym2E= 0.
 FoFCou: FMM=F IPFlag=           0 FMFlag=      100000 FMFlg1=           0
         NFxFlg=           0 DoJE=F BraDBF=F KetDBF=F FulRan=T
         wScrn=  0.000000 ICntrl=     500 IOpCl=  0 I1Cent=           0 NGrid=           0
         NMat0=    5 NMatS0=      5 NMatT0=    0 NMatD0=    5 NMtDS0=    0 NMtDT0=    0
 Symmetry not used in FoFCou.
 CoulSu:  requested number of processors reduced to:  11 ShMem   1 Linda.
 CoulSu:  requested number of processors reduced to:  11 ShMem   1 Linda.
 CoulSu:  requested number of processors reduced to:  11 ShMem   1 Linda.
 CoulSu:  requested number of processors reduced to:  11 ShMem   1 Linda.
 CoulSu:  requested number of processors reduced to:  11 ShMem   1 Linda.
 CoulSu:  requested number of processors reduced to:  11 ShMem   1 Linda.
 CoulSu:  requested number of processors reduced to:  11 ShMem   1 Linda.
 CoulSu:  requested number of processors reduced to:  11 ShMem   1 Linda.
 CoulSu:  requested number of processors reduced to:  11 ShMem   1 Linda.
 CoulSu:  requested number of processors reduced to:  11 ShMem   1 Linda.
 CoulSu:  requested number of processors reduced to:  11 ShMem   1 Linda.
 CoulSu:  requested number of processors reduced to:  11 ShMem   1 Linda.
 CoulSu:  requested number of processors reduced to:  11 ShMem   1 Linda.
 CoulSu:  requested number of processors reduced to:  11 ShMem   1 Linda.
 CoulSu:  requested number of processors reduced to:  11 ShMem   1 Linda.
 CoulSu:  requested number of processors reduced to:  11 ShMem   1 Linda.
 CoulSu:  requested number of processors reduced to:  11 ShMem   1 Linda.
 CoulSu:  requested number of processors reduced to:  11 ShMem   1 Linda.
 CoulSu:  requested number of processors reduced to:  11 ShMem   1 Linda.
 CoulSu:  requested number of processors reduced to:  11 ShMem   1 Linda.
 CoulSu:  requested number of processors reduced to:  11 ShMem   1 Linda.
 CoulSu:  requested number of processors reduced to:  11 ShMem   1 Linda.
 CoulSu:  requested number of processors reduced to:  11 ShMem   1 Linda.
 CoulSu:  requested number of processors reduced to:  11 ShMem   1 Linda.
 CoulSu:  requested number of processors reduced to:  11 ShMem   1 Linda.
 CoulSu:  requested number of processors reduced to:  11 ShMem   1 Linda.
          There are    66 degrees of freedom in the 1st order CPHF.  IDoFFX=6 NUNeed=     3.
     66 vectors produced by pass  0 Test12= 5.42D-14 1.52D-09 XBig12= 9.95D+01 2.47D+00.
 AX will form     5 AO Fock derivatives at one time.
 CoulSu:  requested number of processors reduced to:  11 ShMem   1 Linda.
 CoulSu:  requested number of processors reduced to:  11 ShMem   1 Linda.
 CoulSu:  requested number of processors reduced to:  11 ShMem   1 Linda.
 CoulSu:  requested number of processors reduced to:  11 ShMem   1 Linda.
 CoulSu:  requested number of processors reduced to:  11 ShMem   1 Linda.
 CoulSu:  requested number of processors reduced to:  11 ShMem   1 Linda.
 CoulSu:  requested number of processors reduced to:  11 ShMem   1 Linda.
 CoulSu:  requested number of processors reduced to:  11 ShMem   1 Linda.
 CoulSu:  requested number of processors reduced to:  11 ShMem   1 Linda.
 CoulSu:  requested number of processors reduced to:  11 ShMem   1 Linda.
 CoulSu:  requested number of processors reduced to:  11 ShMem   1 Linda.
 CoulSu:  requested number of processors reduced to:  11 ShMem   1 Linda.
 CoulSu:  requested number of processors reduced to:  11 ShMem   1 Linda.
 CoulSu:  requested number of processors reduced to:  11 ShMem   1 Linda.
 CoulSu:  requested number of processors reduced to:  11 ShMem   1 Linda.
 CoulSu:  requested number of processors reduced to:  11 ShMem   1 Linda.
 CoulSu:  requested number of processors reduced to:  11 ShMem   1 Linda.
 CoulSu:  requested number of processors reduced to:  11 ShMem   1 Linda.
 CoulSu:  requested number of processors reduced to:  11 ShMem   1 Linda.
 CoulSu:  requested number of processors reduced to:  11 ShMem   1 Linda.
 CoulSu:  requested number of processors reduced to:  11 ShMem   1 Linda.
 CoulSu:  requested number of processors reduced to:  11 ShMem   1 Linda.
 CoulSu:  requested number of processors reduced to:  11 ShMem   1 Linda.
 CoulSu:  requested number of processors reduced to:  11 ShMem   1 Linda.
 CoulSu:  requested number of processors reduced to:  11 ShMem   1 Linda.
 CoulSu:  requested number of processors reduced to:  11 ShMem   1 Linda.
     63 vectors produced by pass  1 Test12= 5.42D-14 1.52D-09 XBig12= 1.22D+01 4.19D-01.
 CoulSu:  requested number of processors reduced to:  11 ShMem   1 Linda.
 CoulSu:  requested number of processors reduced to:  11 ShMem   1 Linda.
 CoulSu:  requested number of processors reduced to:  11 ShMem   1 Linda.
 CoulSu:  requested number of processors reduced to:  11 ShMem   1 Linda.
 CoulSu:  requested number of processors reduced to:  11 ShMem   1 Linda.
 CoulSu:  requested number of processors reduced to:  11 ShMem   1 Linda.
 CoulSu:  requested number of processors reduced to:  11 ShMem   1 Linda.
 CoulSu:  requested number of processors reduced to:  11 ShMem   1 Linda.
 CoulSu:  requested number of processors reduced to:  11 ShMem   1 Linda.
 CoulSu:  requested number of processors reduced to:  11 ShMem   1 Linda.
 CoulSu:  requested number of processors reduced to:  11 ShMem   1 Linda.
 CoulSu:  requested number of processors reduced to:  11 ShMem   1 Linda.
 CoulSu:  requested number of processors reduced to:  11 ShMem   1 Linda.
 CoulSu:  requested number of processors reduced to:  11 ShMem   1 Linda.
 CoulSu:  requested number of processors reduced to:  11 ShMem   1 Linda.
 CoulSu:  requested number of processors reduced to:  11 ShMem   1 Linda.
 CoulSu:  requested number of processors reduced to:  11 ShMem   1 Linda.
 CoulSu:  requested number of processors reduced to:  11 ShMem   1 Linda.
 CoulSu:  requested number of processors reduced to:  11 ShMem   1 Linda.
 CoulSu:  requested number of processors reduced to:  11 ShMem   1 Linda.
 CoulSu:  requested number of processors reduced to:  11 ShMem   1 Linda.
 CoulSu:  requested number of processors reduced to:  11 ShMem   1 Linda.
 CoulSu:  requested number of processors reduced to:  11 ShMem   1 Linda.
 CoulSu:  requested number of processors reduced to:  11 ShMem   1 Linda.
 CoulSu:  requested number of processors reduced to:  11 ShMem   1 Linda.
     63 vectors produced by pass  2 Test12= 5.42D-14 1.52D-09 XBig12= 6.86D-01 8.64D-02.
 CoulSu:  requested number of processors reduced to:  11 ShMem   1 Linda.
 CoulSu:  requested number of processors reduced to:  11 ShMem   1 Linda.
 CoulSu:  requested number of processors reduced to:  11 ShMem   1 Linda.
 CoulSu:  requested number of processors reduced to:  11 ShMem   1 Linda.
 CoulSu:  requested number of processors reduced to:  11 ShMem   1 Linda.
 CoulSu:  requested number of processors reduced to:  11 ShMem   1 Linda.
 CoulSu:  requested number of processors reduced to:  11 ShMem   1 Linda.
 CoulSu:  requested number of processors reduced to:  11 ShMem   1 Linda.
 CoulSu:  requested number of processors reduced to:  11 ShMem   1 Linda.
 CoulSu:  requested number of processors reduced to:  11 ShMem   1 Linda.
 CoulSu:  requested number of processors reduced to:  11 ShMem   1 Linda.
 CoulSu:  requested number of processors reduced to:  11 ShMem   1 Linda.
 CoulSu:  requested number of processors reduced to:  11 ShMem   1 Linda.
 CoulSu:  requested number of processors reduced to:  11 ShMem   1 Linda.
 CoulSu:  requested number of processors reduced to:  11 ShMem   1 Linda.
 CoulSu:  requested number of processors reduced to:  11 ShMem   1 Linda.
 CoulSu:  requested number of processors reduced to:  11 ShMem   1 Linda.
 CoulSu:  requested number of processors reduced to:  11 ShMem   1 Linda.
 CoulSu:  requested number of processors reduced to:  11 ShMem   1 Linda.
 CoulSu:  requested number of processors reduced to:  11 ShMem   1 Linda.
 CoulSu:  requested number of processors reduced to:  11 ShMem   1 Linda.
 CoulSu:  requested number of processors reduced to:  11 ShMem   1 Linda.
 CoulSu:  requested number of processors reduced to:  11 ShMem   1 Linda.
 CoulSu:  requested number of processors reduced to:  11 ShMem   1 Linda.
 CoulSu:  requested number of processors reduced to:  11 ShMem   1 Linda.
     63 vectors produced by pass  3 Test12= 5.42D-14 1.52D-09 XBig12= 3.31D-02 2.19D-02.
 CoulSu:  requested number of processors reduced to:  11 ShMem   1 Linda.
 CoulSu:  requested number of processors reduced to:  11 ShMem   1 Linda.
 CoulSu:  requested number of processors reduced to:  11 ShMem   1 Linda.
 CoulSu:  requested number of processors reduced to:  11 ShMem   1 Linda.
 CoulSu:  requested number of processors reduced to:  11 ShMem   1 Linda.
 CoulSu:  requested number of processors reduced to:  11 ShMem   1 Linda.
 CoulSu:  requested number of processors reduced to:  11 ShMem   1 Linda.
 CoulSu:  requested number of processors reduced to:  11 ShMem   1 Linda.
 CoulSu:  requested number of processors reduced to:  11 ShMem   1 Linda.
 CoulSu:  requested number of processors reduced to:  11 ShMem   1 Linda.
 CoulSu:  requested number of processors reduced to:  11 ShMem   1 Linda.
 CoulSu:  requested number of processors reduced to:  11 ShMem   1 Linda.
 CoulSu:  requested number of processors reduced to:  11 ShMem   1 Linda.
 CoulSu:  requested number of processors reduced to:  11 ShMem   1 Linda.
 CoulSu:  requested number of processors reduced to:  11 ShMem   1 Linda.
 CoulSu:  requested number of processors reduced to:  11 ShMem   1 Linda.
 CoulSu:  requested number of processors reduced to:  11 ShMem   1 Linda.
 CoulSu:  requested number of processors reduced to:  11 ShMem   1 Linda.
 CoulSu:  requested number of processors reduced to:  11 ShMem   1 Linda.
 CoulSu:  requested number of processors reduced to:  11 ShMem   1 Linda.
 CoulSu:  requested number of processors reduced to:  11 ShMem   1 Linda.
 CoulSu:  requested number of processors reduced to:  11 ShMem   1 Linda.
 CoulSu:  requested number of processors reduced to:  11 ShMem   1 Linda.
     63 vectors produced by pass  4 Test12= 5.42D-14 1.52D-09 XBig12= 8.46D-04 5.33D-03.
 CoulSu:  requested number of processors reduced to:  11 ShMem   1 Linda.
 CoulSu:  requested number of processors reduced to:  11 ShMem   1 Linda.
 CoulSu:  requested number of processors reduced to:  11 ShMem   1 Linda.
 CoulSu:  requested number of processors reduced to:  11 ShMem   1 Linda.
 CoulSu:  requested number of processors reduced to:  11 ShMem   1 Linda.
     63 vectors produced by pass  5 Test12= 5.42D-14 1.52D-09 XBig12= 1.33D-05 5.86D-04.
 CoulSu:  requested number of processors reduced to:  11 ShMem   1 Linda.
 CoulSu:  requested number of processors reduced to:  11 ShMem   1 Linda.
 CoulSu:  requested number of processors reduced to:  11 ShMem   1 Linda.
     63 vectors produced by pass  6 Test12= 5.42D-14 1.52D-09 XBig12= 1.37D-07 5.55D-05.
     57 vectors produced by pass  7 Test12= 5.42D-14 1.52D-09 XBig12= 1.68D-09 5.20D-06.
     36 vectors produced by pass  8 Test12= 5.42D-14 1.52D-09 XBig12= 2.03D-11 5.72D-07.
      7 vectors produced by pass  9 Test12= 5.42D-14 1.52D-09 XBig12= 2.12D-13 5.46D-08.
      3 vectors produced by pass 10 Test12= 5.42D-14 1.52D-09 XBig12= 2.71D-15 9.33D-09.
 InvSVY:  IOpt=1 It=  1 EMax= 1.24D-14
 Solved reduced A of dimension   547 with    66 vectors.
 FullF1:  Do perturbations    1 to     3.
 CoulSu:  requested number of processors reduced to:  10 ShMem   1 Linda.
 Isotropic polarizability for W=    0.000000      196.05 Bohr**3.
 End of Minotr F.D. properties file   721 does not exist.
 End of Minotr F.D. properties file   722 does not exist.
 End of Minotr F.D. properties file   788 does not exist.
 Leave Link 1002 at Thu Jul 20 15:40:49 2017, MaxMem=    33554432 cpu:     19566.2
 (Enter /sw/chem/g09/l601.exe)
 Copying SCF densities to generalized density rwf, IOpCl= 0 IROHF=0.

 **********************************************************************

            Population analysis using the SCF density.

 **********************************************************************

 Alpha  occ. eigenvalues -- -179.20962-179.19859-101.74654-101.74213-101.74097
 Alpha  occ. eigenvalues -- -101.73293-101.73241-101.73126 -66.42036 -66.40822
 Alpha  occ. eigenvalues --  -20.18494 -20.17398 -19.31351 -19.30229 -19.30068
 Alpha  occ. eigenvalues --  -19.29442 -19.29359 -19.28244 -19.27486 -16.87835
 Alpha  occ. eigenvalues --  -16.87771 -16.87762 -16.86703 -16.86696 -16.86679
 Alpha  occ. eigenvalues --   -9.61194  -9.60759  -9.60642  -9.59841  -9.59783
 Alpha  occ. eigenvalues --   -9.59678  -7.35586  -7.35289  -7.35282  -7.35147
 Alpha  occ. eigenvalues --   -7.35033  -7.34864  -7.34838  -7.34748  -7.34717
 Alpha  occ. eigenvalues --   -7.34233  -7.34176  -7.34070  -7.33947  -7.33917
 Alpha  occ. eigenvalues --   -7.33887  -7.33857  -7.33784  -7.33751  -5.51536
 Alpha  occ. eigenvalues --   -5.50323  -3.86168  -3.86099  -3.86023  -3.84926
 Alpha  occ. eigenvalues --   -3.84912  -3.84808  -2.60461  -2.59356  -1.71248
 Alpha  occ. eigenvalues --   -1.70501  -1.70451  -1.70152  -1.69380  -1.69359
 Alpha  occ. eigenvalues --   -1.18130  -1.15983  -1.14576  -1.13069  -1.12555
 Alpha  occ. eigenvalues --   -1.10955  -1.09861  -0.93639  -0.92810  -0.92474
 Alpha  occ. eigenvalues --   -0.92415  -0.91615  -0.91496  -0.73019  -0.69761
 Alpha  occ. eigenvalues --   -0.65795  -0.64400  -0.62599  -0.61440  -0.59983
 Alpha  occ. eigenvalues --   -0.54759  -0.53816  -0.53162  -0.51659  -0.50626
 Alpha  occ. eigenvalues --   -0.50157  -0.49478  -0.49313  -0.48790  -0.48595
 Alpha  occ. eigenvalues --   -0.48470  -0.48221  -0.47931  -0.47535  -0.47286
 Alpha  occ. eigenvalues --   -0.46921  -0.46714  -0.46535  -0.45975  -0.45596
 Alpha  occ. eigenvalues --   -0.45543  -0.45465  -0.45074  -0.44538  -0.44340
 Alpha  occ. eigenvalues --   -0.43583  -0.42895  -0.42533  -0.41920  -0.41576
 Alpha  occ. eigenvalues --   -0.41441  -0.40820
 Alpha virt. eigenvalues --   -0.07193  -0.06825  -0.05987  -0.05807  -0.04561
 Alpha virt. eigenvalues --   -0.04071  -0.03193  -0.03146  -0.02862  -0.01862
 Alpha virt. eigenvalues --    0.03858   0.07070   0.08611   0.09789   0.11237
 Alpha virt. eigenvalues --    0.13243   0.13904   0.14902   0.15558   0.16488
 Alpha virt. eigenvalues --    0.16547   0.17041   0.17868   0.18484   0.18843
 Alpha virt. eigenvalues --    0.19621   0.19692   0.20326   0.20822   0.20979
 Alpha virt. eigenvalues --    0.21553   0.22770   0.22957   0.23422   0.24091
 Alpha virt. eigenvalues --    0.24929   0.25492   0.25915   0.26456   0.27106
 Alpha virt. eigenvalues --    0.27682   0.30292   0.30446   0.31966   0.33844
 Alpha virt. eigenvalues --    0.34454   0.34986   0.36309   0.38150   0.39286
 Alpha virt. eigenvalues --    0.39502   0.40394   0.40745   0.41177   0.41489
 Alpha virt. eigenvalues --    0.42600   0.42794   0.43643   0.43974   0.44570
 Alpha virt. eigenvalues --    0.44843   0.45901   0.46229   0.46393   0.46711
 Alpha virt. eigenvalues --    0.47458   0.48867   0.49297   0.51023   0.51959
 Alpha virt. eigenvalues --    0.52375   0.53100   0.53583   0.55301   0.56415
 Alpha virt. eigenvalues --    0.57296   0.57992   0.58703   0.59294   0.59937
 Alpha virt. eigenvalues --    0.60913   0.61236   0.62123   0.62933   0.63537
 Alpha virt. eigenvalues --    0.63946   0.64282   0.64606   0.65236   0.66456
 Alpha virt. eigenvalues --    0.66960   0.67932   0.68892   0.70356   0.71679
 Alpha virt. eigenvalues --    0.72091   0.72457   0.73387   0.74787   0.75468
 Alpha virt. eigenvalues --    0.75554   0.76236   0.77108   0.77754   0.78298
 Alpha virt. eigenvalues --    0.78723   0.78802   0.79377   0.80005   0.81432
 Alpha virt. eigenvalues --    0.81980   0.82296   0.82804   0.83249   0.83569
 Alpha virt. eigenvalues --    0.84364   0.84551   0.84711   0.85010   0.85723
 Alpha virt. eigenvalues --    0.85884   0.86051   0.86573   0.87156   0.88031
 Alpha virt. eigenvalues --    0.88964   0.89654   0.89766   0.91018   0.92609
 Alpha virt. eigenvalues --    0.93033   0.93993   0.94412   0.94871   0.95961
 Alpha virt. eigenvalues --    0.97137   0.97635   0.97875   0.98531   0.99300
 Alpha virt. eigenvalues --    1.00481   1.01684   1.02058   1.03082   1.05725
 Alpha virt. eigenvalues --    1.07929   1.11648   1.12530   1.13936   1.14753
 Alpha virt. eigenvalues --    1.15732   1.15974   1.17358   1.17448   1.18955
 Alpha virt. eigenvalues --    1.24074   1.33354   1.34283   1.36591   1.38122
 Alpha virt. eigenvalues --    1.39809   1.42865   1.46193   1.47250   1.48496
 Alpha virt. eigenvalues --    1.49824   1.51100   1.52718   1.52854   1.53223
 Alpha virt. eigenvalues --    1.55475   1.56662   1.58720   1.60411   1.60896
 Alpha virt. eigenvalues --    1.61920   1.63030   1.64500   1.71803   1.72312
 Alpha virt. eigenvalues --    1.74438   1.76088   1.76429   1.77193   1.78885
 Alpha virt. eigenvalues --    1.80272   1.81012   1.83800   1.85662   1.87679
 Alpha virt. eigenvalues --    2.01290   2.02422   2.03295   2.04089   2.04221
 Alpha virt. eigenvalues --    2.05137   2.05799   2.06588   2.07744   2.08018
 Alpha virt. eigenvalues --    2.08596   2.09234   2.10359   2.10947   2.13167
 Alpha virt. eigenvalues --    2.14732   2.27029   2.30432   2.32769   2.39471
 Alpha virt. eigenvalues --    2.40429   2.41004   2.41730   2.42573   2.43707
 Alpha virt. eigenvalues --    2.45008   2.46398   2.46919   2.49814   2.50266
 Alpha virt. eigenvalues --    2.52537   2.54004   2.55802   2.58650   2.62254
 Alpha virt. eigenvalues --    2.62446   2.63956   2.65868   2.66729   2.67501
 Alpha virt. eigenvalues --    2.67801   2.68294   2.69123   2.69628   2.70500
 Alpha virt. eigenvalues --    2.71358   2.71882   2.73224   2.74407   2.74605
 Alpha virt. eigenvalues --    2.75784   2.77330   2.78180   2.79348   2.80808
 Alpha virt. eigenvalues --    2.81123   2.82516   2.83611   2.83757   2.85525
 Alpha virt. eigenvalues --    2.86723   2.87642   2.89751   2.93365   2.93955
 Alpha virt. eigenvalues --    2.95090   2.97339   2.98465   2.99200   3.00366
 Alpha virt. eigenvalues --    3.01460   3.01587   3.02524   3.02952   3.05286
 Alpha virt. eigenvalues --    3.05649   3.07045   3.07369   3.09345   3.11226
 Alpha virt. eigenvalues --    3.11556   3.12917   3.14181   3.16028   3.18892
 Alpha virt. eigenvalues --    3.20065   3.21792   3.25847   3.30510   3.35103
 Alpha virt. eigenvalues --    3.36741   3.41741   3.43865   3.48197   3.50986
 Alpha virt. eigenvalues --    4.00340   4.02575   4.31360   4.33128   4.33369
 Alpha virt. eigenvalues --    4.35173  10.25733  10.26927  24.69269  24.74347
 Alpha virt. eigenvalues --   24.77813  24.79619  24.83846  25.00702  43.35917
 Alpha virt. eigenvalues --   43.39340  43.39656  43.46908  43.52342  43.63142
 Alpha virt. eigenvalues --   43.64814
          Condensed to atoms (all electrons):
               1          2          3          4          5          6
     1  Ti  19.958203   0.369553   0.365965   0.361833  -0.004419   0.014440
     2  Cl   0.369553  16.845000  -0.011370  -0.012243   0.000208   0.000014
     3  Cl   0.365965  -0.011370  16.815838  -0.008283  -0.000126  -0.003959
     4  Cl   0.361833  -0.012243  -0.008283  16.829413   0.006602  -0.005451
     5  Ti  -0.004419   0.000208  -0.000126   0.006602  19.927619   0.349377
     6  Cl   0.014440   0.000014  -0.003959  -0.005451   0.349377  16.868318
     7  Cl   0.000200   0.000000   0.000000   0.000010   0.377030  -0.011574
     8  Cl  -0.000410   0.000000  -0.000001  -0.002532   0.360749  -0.009584
     9  Si   0.001375   0.000031   0.000005   0.000909  -0.027530  -0.000917
    10  O    0.005182   0.000059  -0.000003   0.000058   0.000739   0.000050
    11  Si  -0.031785  -0.003891   0.001642  -0.001166   0.000574   0.001613
    12  O    0.230636  -0.013385  -0.001889  -0.004959   0.000288  -0.003781
    13  O   -0.000066   0.000000   0.000006  -0.000674   0.233778  -0.006017
    14  O   -0.001041   0.000012   0.000000   0.000005   0.001335  -0.000102
    15  H   -0.000112   0.000001   0.000026  -0.000001   0.000017   0.000005
    16  O    0.006628  -0.002897  -0.000015   0.000019   0.000029  -0.000002
    17  O   -0.000032   0.000000   0.000000  -0.000001   0.006680  -0.000016
    18  O   -0.000145   0.000000   0.000000  -0.000006   0.002979   0.000002
    19  H    0.004112   0.010414   0.000048   0.000053  -0.000014   0.000001
    20  H   -0.000005   0.000000   0.000000   0.000000  -0.000146   0.000035
    21  H   -0.000007   0.000000   0.000000  -0.000006   0.000028   0.000000
               7          8          9         10         11         12
     1  Ti   0.000200  -0.000410   0.001375   0.005182  -0.031785   0.230636
     2  Cl   0.000000   0.000000   0.000031   0.000059  -0.003891  -0.013385
     3  Cl   0.000000  -0.000001   0.000005  -0.000003   0.001642  -0.001889
     4  Cl   0.000010  -0.002532   0.000909   0.000058  -0.001166  -0.004959
     5  Ti   0.377030   0.360749  -0.027530   0.000739   0.000574   0.000288
     6  Cl  -0.011574  -0.009584  -0.000917   0.000050   0.001613  -0.003781
     7  Cl  16.798423  -0.011616  -0.000185   0.000015   0.000117   0.000000
     8  Cl  -0.011616  16.842051   0.001211  -0.000014   0.000082   0.000016
     9  Si  -0.000185   0.001211  11.842092   0.352405  -0.046824  -0.000654
    10  O    0.000015  -0.000014   0.352405   7.809762   0.385157  -0.023709
    11  Si   0.000117   0.000082  -0.046824   0.385157  11.807552   0.324288
    12  O    0.000000   0.000016  -0.000654  -0.023709   0.324288   8.046378
    13  O   -0.003993  -0.002965   0.309796  -0.023119   0.004727   0.000995
    14  O   -0.000003   0.000000   0.003072  -0.032780   0.420181  -0.029036
    15  H    0.000000   0.000000  -0.000370   0.001578  -0.020717  -0.000225
    16  O    0.000000   0.000000  -0.000931  -0.023443   0.422499  -0.029143
    17  O    0.000029   0.000005   0.436019  -0.025840  -0.000845  -0.000046
    18  O    0.000016  -0.000041   0.430917  -0.025693  -0.000045  -0.000015
    19  H    0.000000   0.000000  -0.000140  -0.000078  -0.030336  -0.000853
    20  H    0.000100   0.000001  -0.029463   0.000805  -0.001908   0.000083
    21  H   -0.000014   0.000062  -0.024936  -0.001067  -0.000269  -0.000007
              13         14         15         16         17         18
     1  Ti  -0.000066  -0.001041  -0.000112   0.006628  -0.000032  -0.000145
     2  Cl   0.000000   0.000012   0.000001  -0.002897   0.000000   0.000000
     3  Cl   0.000006   0.000000   0.000026  -0.000015   0.000000   0.000000
     4  Cl  -0.000674   0.000005  -0.000001   0.000019  -0.000001  -0.000006
     5  Ti   0.233778   0.001335   0.000017   0.000029   0.006680   0.002979
     6  Cl  -0.006017  -0.000102   0.000005  -0.000002  -0.000016   0.000002
     7  Cl  -0.003993  -0.000003   0.000000   0.000000   0.000029   0.000016
     8  Cl  -0.002965   0.000000   0.000000   0.000000   0.000005  -0.000041
     9  Si   0.309796   0.003072  -0.000370  -0.000931   0.436019   0.430917
    10  O   -0.023119  -0.032780   0.001578  -0.023443  -0.025840  -0.025693
    11  Si   0.004727   0.420181  -0.020717   0.422499  -0.000845  -0.000045
    12  O    0.000995  -0.029036  -0.000225  -0.029143  -0.000046  -0.000015
    13  O    8.066970  -0.000313  -0.000022  -0.000008  -0.031280  -0.026512
    14  O   -0.000313   7.845881   0.330600  -0.028996  -0.002936   0.000001
    15  H   -0.000022   0.330600   0.364636  -0.001453   0.000210   0.000002
    16  O   -0.000008  -0.028996  -0.001453   7.779339  -0.000033   0.000003
    17  O   -0.031280  -0.002936   0.000210  -0.000033   7.761972  -0.027687
    18  O   -0.026512   0.000001   0.000002   0.000003  -0.027687   7.761089
    19  H   -0.000002   0.000906  -0.000078   0.325172   0.000002   0.000000
    20  H    0.000776   0.005474   0.000508   0.000022   0.331071   0.000688
    21  H    0.000027   0.000005   0.000000   0.000004   0.000877   0.324058
              19         20         21
     1  Ti   0.004112  -0.000005  -0.000007
     2  Cl   0.010414   0.000000   0.000000
     3  Cl   0.000048   0.000000   0.000000
     4  Cl   0.000053   0.000000  -0.000006
     5  Ti  -0.000014  -0.000146   0.000028
     6  Cl   0.000001   0.000035   0.000000
     7  Cl   0.000000   0.000100  -0.000014
     8  Cl   0.000000   0.000001   0.000062
     9  Si  -0.000140  -0.029463  -0.024936
    10  O   -0.000078   0.000805  -0.001067
    11  Si  -0.030336  -0.001908  -0.000269
    12  O   -0.000853   0.000083  -0.000007
    13  O   -0.000002   0.000776   0.000027
    14  O    0.000906   0.005474   0.000005
    15  H   -0.000078   0.000508   0.000000
    16  O    0.325172   0.000022   0.000004
    17  O    0.000002   0.331071   0.000877
    18  O    0.000000   0.000688   0.324058
    19  H    0.378378  -0.000001  -0.000001
    20  H   -0.000001   0.365795  -0.000077
    21  H   -0.000001  -0.000077   0.387988
 Mulliken charges:
               1
     1  Ti   0.719894
     2  Cl  -0.181506
     3  Cl  -0.157884
     4  Cl  -0.163581
     5  Ti   0.764204
     6  Cl  -0.192452
     7  Cl  -0.148555
     8  Cl  -0.177014
     9  Si   0.754119
    10  O   -0.400062
    11  Si   0.769357
    12  O   -0.494980
    13  O   -0.522104
    14  O   -0.512268
    15  H    0.325396
    16  O   -0.446795
    17  O   -0.448150
    18  O   -0.439610
    19  H    0.312417
    20  H    0.326240
    21  H    0.313334
 Sum of Mulliken charges =   0.00000
 Mulliken charges with hydrogens summed into heavy atoms:
               1
     1  Ti   0.719894
     2  Cl  -0.181506
     3  Cl  -0.157884
     4  Cl  -0.163581
     5  Ti   0.764204
     6  Cl  -0.192452
     7  Cl  -0.148555
     8  Cl  -0.177014
     9  Si   0.754119
    10  O   -0.400062
    11  Si   0.769357
    12  O   -0.494980
    13  O   -0.522104
    14  O   -0.186871
    16  O   -0.134378
    17  O   -0.121910
    18  O   -0.126276
 APT charges:
               1
     1  Ti   2.355645
     2  Cl  -0.588562
     3  Cl  -0.570517
     4  Cl  -0.543721
     5  Ti   2.355454
     6  Cl  -0.566118
     7  Cl  -0.577162
     8  Cl  -0.567106
     9  Si   2.631026
    10  O   -1.325240
    11  Si   2.542255
    12  O   -1.452887
    13  O   -1.474855
    14  O   -0.897374
    15  H    0.328832
    16  O   -0.882916
    17  O   -0.878635
    18  O   -0.897262
    19  H    0.325822
    20  H    0.352219
    21  H    0.331102
 Sum of APT charges =   0.00000
 APT charges with hydrogens summed into heavy atoms:
               1
     1  Ti   2.355645
     2  Cl  -0.588562
     3  Cl  -0.570517
     4  Cl  -0.543721
     5  Ti   2.355454
     6  Cl  -0.566118
     7  Cl  -0.577162
     8  Cl  -0.567106
     9  Si   2.631026
    10  O   -1.325240
    11  Si   2.542255
    12  O   -1.452887
    13  O   -1.474855
    14  O   -0.568542
    16  O   -0.557094
    17  O   -0.526416
    18  O   -0.566160
 Electronic spatial extent (au):  <R**2>=           9511.9359
 Charge=              0.0000 electrons
 Dipole moment (field-independent basis, Debye):
    X=              2.8450    Y=              1.7013    Z=             -0.1993  Tot=              3.3208
 Quadrupole moment (field-independent basis, Debye-Ang):
   XX=           -185.1197   YY=           -184.3187   ZZ=           -163.8344
   XY=              6.9595   XZ=             -3.1683   YZ=             -3.0601
 Traceless Quadrupole moment (field-independent basis, Debye-Ang):
   XX=             -7.3621   YY=             -6.5611   ZZ=             13.9232
   XY=              6.9595   XZ=             -3.1683   YZ=             -3.0601
 Octapole moment (field-independent basis, Debye-Ang**2):
  XXX=             36.7947  YYY=            -14.2788  ZZZ=             -1.4635  XYY=             21.7904
  XXY=             -2.1742  XXZ=              4.3246  XZZ=             -0.3957  YZZ=             44.9170
  YYZ=            -14.9277  XYZ=             -3.5940
 Hexadecapole moment (field-independent basis, Debye-Ang**3):
 XXXX=          -6823.0284 YYYY=          -3929.5248 ZZZZ=          -1338.4243 XXXY=            104.6595
 XXXZ=             -5.7544 YYYX=             32.3789 YYYZ=            -55.2462 ZZZX=            -88.3713
 ZZZY=            -26.5277 XXYY=          -1834.3870 XXZZ=          -1342.5435 YYZZ=           -816.7835
 XXYZ=              2.2849 YYXZ=             29.3798 ZZXY=              7.5832
 N-N= 3.508161907336D+03 E-N=-2.023028296282D+04  KE= 5.556245929412D+03
  Exact polarizability: 214.278   0.726 192.588  -2.911  -1.112 181.296
 Approx polarizability: 223.267  -0.180 212.258  -5.386  -1.864 224.629
 No NMR shielding tensors so no spin-rotation constants.
 Leave Link  601 at Thu Jul 20 15:40:50 2017, MaxMem=    33554432 cpu:         4.5
 (Enter /sw/chem/g09/l701.exe)
 Compute integral second derivatives.
 ... and contract with generalized density number  0.
 R6Disp: Adding Grimme-D2 dispersion energy 2nd derivatives to the Hessian.
 PrsmSu:  requested number of processors reduced to:   4 ShMem   1 Linda.
 PrsmSu:  requested number of processors reduced to:   4 ShMem   1 Linda.
 Leave Link  701 at Thu Jul 20 15:40:50 2017, MaxMem=    33554432 cpu:         2.9
 (Enter /sw/chem/g09/l702.exe)
 L702 exits ... SP integral derivatives will be done elsewhere.
 Leave Link  702 at Thu Jul 20 15:40:50 2017, MaxMem=    33554432 cpu:         0.3
 (Enter /sw/chem/g09/l703.exe)
 Compute integral second derivatives, UseDBF=F ICtDFT=           0.
 Integral derivatives from FoFJK, PRISM(SPDF).
 Calling FoFJK, ICntrl=    100127 FMM=F ISym2X=0 I1Cent= 0 IOpClX= 0 NMat=1 NMatS=1 NMatT=0.
 FoFJK:  IHMeth= 1 ICntrl=  100127 DoSepK=T KAlg= 0 I1Cent=   0 FoldK=F
 IRaf=         1 NMat=   1 IRICut=       1 DoRegI=T DoRafI=F ISym2E= 0.
 FoFCou: FMM=F IPFlag=           0 FMFlag=      100000 FMFlg1=         800
         NFxFlg=           0 DoJE=F BraDBF=F KetDBF=F FulRan=T
         wScrn=  0.000000 ICntrl=  100527 IOpCl=  0 I1Cent=           0 NGrid=           0
         NMat0=    1 NMatS0=      1 NMatT0=    0 NMatD0=    1 NMtDS0=    0 NMtDT0=    0
 Symmetry not used in FoFCou.
 CoulSu:  requested number of processors reduced to:   4 ShMem   1 Linda.
 CoulSu:  requested number of processors reduced to:   4 ShMem   1 Linda.
 Leave Link  703 at Thu Jul 20 15:47:46 2017, MaxMem=    33554432 cpu:      2110.2
 (Enter /sw/chem/g09/l716.exe)
 Dipole        = 1.11929501D+00 6.69347942D-01-7.84087055D-02
 Polarizability= 2.14277877D+02 7.26196371D-01 1.92588451D+02
                -2.91054084D+00-1.11176519D+00 1.81296134D+02
 Full mass-weighted force constant matrix:
 Low frequencies ---   -0.0116   -0.0007    0.0000    0.0000    0.0000    0.0042
 Low frequencies ---    0.0104    0.0173    0.0290
 ******    1 imaginary frequencies (negative Signs) ****** 
 Diagonal vibrational polarizability:
      229.3464506     343.9220984     155.0070649
 Harmonic frequencies (cm**-1), IR intensities (KM/Mole), Raman scattering
 activities (A**4/AMU), depolarization ratios for plane and unpolarized
 incident light, reduced masses (AMU), force constants (mDyne/A),
 and normal coordinates:
                      1                      2                      3
                      A                      A                      A
 Frequencies --     -0.0051                 0.0172                 0.0289
 Red. masses --************           ************           ************
 Frc consts  --      0.0003                 0.0050                 0.0122
 IR Inten    --      0.0000                 0.0000                 0.0000
  Atom  AN      X      Y      Z        X      Y      Z        X      Y      Z
     1  22     0.00  -0.02  -0.18     0.09   0.06   0.06    -0.01   0.03   0.26
     2  17     0.08  -0.01  -0.33     0.13   0.10  -0.05    -0.01   0.10   0.22
     3  17    -0.13  -0.02  -0.22     0.01   0.02   0.07     0.00  -0.06   0.33
     4  17     0.13  -0.02  -0.08     0.17   0.09   0.14    -0.02   0.11   0.30
     5  22    -0.06  -0.11   0.26     0.05   0.01   0.31     0.01   0.03   0.24
     6  17    -0.15  -0.11   0.17    -0.01  -0.01   0.27    -0.01  -0.07   0.29
     7  17    -0.14  -0.19   0.41     0.00  -0.05   0.40     0.00  -0.02   0.23
     8  17     0.12  -0.08   0.32     0.15   0.07   0.38     0.00   0.15   0.33
     9  14    -0.02  -0.08   0.03     0.06   0.05   0.10    -0.01   0.08   0.05
    10   8    -0.02  -0.08   0.01     0.07   0.04   0.08    -0.02   0.12  -0.07
    11  14    -0.02  -0.01   0.00     0.03   0.03   0.04     0.02   0.01  -0.01
    12   8    -0.04  -0.02  -0.11     0.05   0.04   0.06    -0.01   0.00   0.17
    13   8    -0.04  -0.09   0.18     0.05   0.04   0.24     0.02   0.06   0.14
    14   8    -0.02   0.09   0.03    -0.05  -0.01   0.06     0.11  -0.10  -0.09
    15   1     0.02   0.25   0.05    -0.08  -0.02   0.03     0.28   0.08   0.01
    16   8    -0.02  -0.04   0.04     0.03   0.05  -0.06     0.03   0.00  -0.05
    17   8    -0.01  -0.19  -0.04     0.12  -0.02   0.02    -0.13   0.02   0.08
    18   8    -0.02   0.05  -0.01     0.02   0.15   0.03     0.05   0.12   0.07
    19   1     0.03  -0.15  -0.08     0.12   0.03  -0.17     0.04   0.00  -0.05
    20   1     0.02  -0.16  -0.01     0.18  -0.03   0.07    -0.24  -0.02  -0.01
    21   1     0.00   0.15   0.03    -0.35  -0.14   0.02    -0.12  -0.08   0.04
                      4                      5                      6
                      A                      A                      A
 Frequencies --      0.0309                 0.0386                 0.0506
 Red. masses --************           ************           ************
 Frc consts  --      0.0115                 0.0164                 0.0556
 IR Inten    --      0.0000                 0.0000                 0.0000
  Atom  AN      X      Y      Z        X      Y      Z        X      Y      Z
     1  22     0.11   0.15   0.21     0.03   0.11  -0.29    -0.05   0.01  -0.04
     2  17     0.05   0.27   0.25     0.09   0.09  -0.40    -0.07  -0.06   0.04
     3  17     0.24   0.19   0.21    -0.08   0.15  -0.36    -0.02   0.04  -0.06
     4  17     0.10   0.09   0.16     0.15   0.07  -0.23    -0.12  -0.01  -0.11
     5  22     0.17   0.00  -0.13     0.04   0.02   0.14    -0.02   0.19  -0.23
     6  17     0.27  -0.01  -0.03    -0.08   0.07   0.00     0.00   0.17  -0.20
     7  17     0.22  -0.07  -0.24    -0.03   0.06   0.30     0.04   0.31  -0.31
     8  17     0.11   0.06  -0.10     0.16  -0.04   0.11    -0.15   0.17  -0.27
     9  14    -0.02   0.04  -0.03     0.04   0.02   0.02     0.06   0.15  -0.01
    10   8    -0.04   0.13   0.07     0.03   0.10  -0.07     0.07   0.04   0.07
    11  14     0.01   0.11   0.13     0.04   0.14  -0.06     0.03   0.05   0.03
    12   8     0.07   0.12   0.19    -0.01   0.12  -0.20    -0.01   0.04  -0.03
    13   8     0.10   0.03  -0.15     0.09   0.00   0.15     0.03   0.16  -0.19
    14   8     0.02   0.01   0.09     0.09   0.25  -0.05    -0.03   0.08   0.07
    15   1     0.02  -0.11   0.10    -0.07  -0.16  -0.12    -0.11   0.03   0.02
    16   8    -0.01   0.14   0.14     0.07   0.05   0.09     0.07  -0.01   0.02
    17   8    -0.04   0.07   0.00    -0.06  -0.12  -0.01     0.09   0.31   0.07
    18   8    -0.12  -0.10  -0.04     0.08   0.08   0.02     0.05   0.05   0.02
    19   1     0.17  -0.08  -0.23     0.02  -0.08   0.05     0.02  -0.01   0.07
    20   1    -0.08   0.03  -0.04    -0.08   0.01   0.00    -0.11  -0.37  -0.23
    21   1     0.04   0.05  -0.02    -0.04  -0.04   0.00     0.02  -0.09  -0.03
                      7                      8                      9
                      A                      A                      A
 Frequencies --      0.0698                 0.0738                 0.0904
 Red. masses --************           ************           ************
 Frc consts  --      0.1041                 0.1457                 0.1323
 IR Inten    --      0.0000                 0.0000                 0.0000
  Atom  AN      X      Y      Z        X      Y      Z        X      Y      Z
     1  22     0.10   0.03   0.05    -0.04   0.09  -0.25    -0.25   0.02  -0.03
     2  17     0.14   0.05  -0.04    -0.04   0.10  -0.27    -0.23   0.00  -0.07
     3  17     0.01  -0.11   0.13    -0.06   0.07  -0.24    -0.29   0.07  -0.08
     4  17     0.07   0.19   0.13    -0.03   0.11  -0.22    -0.19  -0.02  -0.02
     5  22    -0.14  -0.04   0.19    -0.06   0.00  -0.13    -0.18   0.10   0.10
     6  17    -0.06   0.05   0.22    -0.07   0.05  -0.17    -0.27   0.04   0.05
     7  17    -0.19  -0.29   0.20    -0.07   0.02  -0.11    -0.19   0.20   0.18
     8  17     0.03   0.01   0.25    -0.03  -0.05  -0.17    -0.18   0.11   0.11
     9  14    -0.10   0.03  -0.02    -0.05  -0.03   0.07    -0.09   0.08   0.02
    10   8    -0.10  -0.14  -0.06    -0.05  -0.03  -0.10    -0.10   0.12   0.09
    11  14    -0.06  -0.03  -0.01    -0.08   0.08  -0.16    -0.15   0.06   0.06
    12   8     0.15   0.02  -0.03    -0.04   0.09  -0.25    -0.28   0.04   0.02
[...]
 0724100,0.00353622,0.00081936,-0.00044340,-0.00114295,-0.00193199,0.00
 034985,-0.00103612,-0.00031764,-0.00087172,0.00112802,-0.02961262,-0.0
 3897497,-0.00016521,0.00558602,0.07517165,-0.00192003,0.00669629,-0.00
 529618,0.00081723,0.00033608,0.00075489,0.00011300,-0.00055945,-0.0004
 7416,-0.00160651,-0.00086070,0.00208798,0.00013079,-0.00269185,-0.0029
 8458,-0.00119553,0.00032970,0.00116598,0.00043130,-0.00010521,0.000459
 26,-0.00005538,0.00011956,0.00005707,-0.01078233,-0.00360468,-0.044763
 49,-0.14078661,0.02740525,0.20399004,0.00081471,0.02602868,-0.00605626
 ,-0.00129114,-0.00316968,0.00005944,0.00016589,-0.00304388,-0.00313685
 ,-0.00404343,-0.00291853,0.00420590,-0.00261463,-0.01767298,-0.0043032
 5,-0.00345579,0.00213091,0.00254333,0.00141880,0.00031613,0.00070438,-
 0.00000614,0.00240712,-0.00268008,-0.05785270,-0.01372112,0.01822253,-
 0.16774145,0.02586093,0.11606784,0.57597763,0.03663412,-0.05986581,0.0
 2270404,-0.01206745,-0.00670486,-0.00583022,-0.00284715,0.00731559,0.0
 0917671,0.00650682,0.00571506,-0.00881466,-0.00628321,0.00754176,0.002
 26702,0.00407012,-0.00108304,-0.00198764,0.00167578,-0.00057221,0.0007
 3957,0.00070091,-0.00065923,0.00068889,0.01377165,0.02087092,-0.002032
 22,0.01303656,-0.03921095,-0.01731156,0.00836715,0.39892526,-0.0013420
 2,0.00298091,0.00796365,-0.00084979,-0.00144132,-0.00176297,0.00055803
 ,-0.00056637,-0.00103788,0.00121582,0.00009987,-0.00210506,0.00136754,
 0.00841759,0.00731768,0.00260065,-0.00072670,-0.00298271,-0.00130345,0
 .00022167,-0.00106329,-0.00011026,-0.00053185,0.00024662,0.04462699,0.
 00837287,0.01376035,0.11221217,-0.02392661,-0.14882628,-0.00108446,-0.
 03199077,0.47816772,-0.08120829,0.09603104,-0.03397319,-0.01106186,0.0
 0165549,-0.00709058,-0.00120154,0.00557591,0.00796163,0.01128920,-0.00
 006294,-0.00734066,0.00350385,0.00761244,-0.00060296,-0.00173254,-0.00
 218028,-0.00089228,-0.00087745,-0.00008327,-0.00034397,0.00008019,-0.0
 0154338,0.00190942,0.01495813,0.00343946,-0.00226884,-0.01532850,0.019
 20855,0.01132994,-0.03887553,0.01568801,-0.00136946,0.12450282,0.09277
 043,-0.18269521,0.05803054,0.01509215,0.01610733,0.00709758,0.00472910
 ,-0.01172199,-0.01571907,-0.01226289,-0.00820031,0.01541534,0.00212344
 ,-0.01320366,-0.00204481,-0.00485813,0.00140993,0.00151026,-0.00062464
 ,0.00054778,-0.00028267,-0.00062539,0.00169278,-0.00193520,-0.02589457
 ,-0.01623383,0.00316865,0.03451105,-0.01436270,-0.01481563,0.02236163,
 -0.17841636,0.00103121,-0.14271274,0.44214606,-0.03583187,0.06305048,-
 0.05340949,-0.00681095,0.00066451,-0.00124886,0.00143552,-0.00082940,0
 .01126901,-0.00023731,0.00583755,-0.00294919,0.00047429,0.00011925,-0.
 00297376,-0.00191356,-0.00059202,0.00086851,0.00003933,-0.00006388,0.0
 0016586,0.00013474,-0.00053050,0.00082735,-0.00327943,-0.00046656,-0.0
 0382270,0.00897700,-0.00896190,0.00389470,0.00309903,-0.01657153,-0.03
 695713,0.03790815,-0.05800681,0.07205142,0.00328433,-0.00605726,-0.000
 34083,-0.00061393,0.00001385,-0.00021304,-0.00013269,0.00116233,0.0014
 3576,-0.00014542,0.00107984,-0.00040903,-0.05359783,-0.07295934,-0.025
 20736,0.00973146,0.00334832,-0.00376838,-0.00599418,-0.00529647,-0.005
 06553,0.00064528,-0.00412188,0.00592887,-0.03545710,-0.00493013,0.0008
 1603,-0.01841134,-0.02294108,0.00186608,0.01215367,-0.00220437,-0.0106
 6406,-0.00537316,0.00611734,0.00070128,0.08382640,-0.00126017,-0.01325
 009,0.00098258,0.00076672,0.00108846,0.00042511,0.00047677,0.00174239,
 0.00200303,0.00303139,0.00207245,-0.00168793,-0.07034989,-0.21588727,-
 0.06575734,0.01615535,-0.00610681,-0.01512001,-0.01985944,0.00969618,-
 0.00941295,-0.00261694,-0.01333433,0.01701470,-0.00759584,-0.18110307,
 -0.01639754,-0.03793419,-0.01697110,0.00598158,0.02525072,-0.01596125,
 -0.01727830,-0.00718945,0.01721136,0.00012533,0.10005034,0.48429340,-0
 .00012053,-0.00140175,-0.00226587,0.00014119,0.00020120,0.00019511,0.0
 0009073,0.00056810,0.00079087,-0.00049077,0.00024532,0.00069048,-0.025
 28606,-0.07033505,-0.05397985,0.00191863,-0.00613351,-0.00326155,-0.00
 637958,-0.00167132,-0.00184336,0.00150400,0.00165820,0.01187689,0.0027
 0878,-0.00357635,-0.04047345,-0.00833742,-0.00430689,0.01035911,0.0031
 3309,-0.00307717,-0.00700332,-0.00012748,0.00199609,0.00137208,0.02959
 271,0.09549663,0.07722022,0.00046861,-0.00591401,0.00125540,0.00003148
 ,0.00045955,-0.00012414,-0.00006565,0.00088243,0.00105049,0.00105428,0
 .00079541,-0.00109992,-0.00006212,0.00335978,-0.00023381,0.00066172,-0
 .00047771,-0.00025875,0.00002124,-0.00019703,0.00011001,0.00004046,-0.
 00054869,0.00065543,0.00005886,0.00421194,-0.00640228,0.00387065,-0.00
 246550,0.01607521,-0.07965116,0.02405453,-0.05900034,0.00110391,0.0118
 5548,-0.00796474,-0.00055112,-0.00395508,0.00054379,0.27606103,-0.0052
 2073,0.00781368,-0.00313023,0.00187133,0.00103371,0.00093992,0.0004538
 4,-0.00112735,-0.00153554,-0.00097706,-0.00081612,0.00137055,0.0018847
 6,-0.00075977,-0.00104291,-0.00095163,0.00012821,0.00068493,-0.0005814
 4,0.00011175,-0.00021256,-0.00015755,-0.00008884,0.00015712,0.00115537
 ,-0.00451818,0.00100639,0.00071257,0.00567083,-0.00034999,0.03164888,-
 0.05115839,0.05796556,0.01317687,-0.01916141,0.01773011,-0.00038987,0.
 00210780,0.00068656,-0.05775972,0.06288281,0.00272376,-0.00584235,-0.0
 0035629,-0.00059561,0.00007766,-0.00013463,-0.00042060,0.00113260,0.00
 176854,0.00046276,0.00051114,-0.00051518,-0.00136890,-0.00306257,-0.00
 290822,-0.00065771,0.00024951,0.00109548,0.00077081,-0.00015269,0.0005
 7510,0.00011349,0.00015204,-0.00001908,-0.01894059,-0.00356978,-0.0046
 2446,0.01375755,0.00705141,-0.03013326,-0.08784174,0.06296025,-0.22320
 344,-0.00756318,0.01274548,-0.00214253,0.00352903,0.00577612,0.0022723
 1,-0.16339832,-0.04591530,0.64831200,0.00063094,0.00024721,-0.00018255
 ,-0.00019989,-0.00016009,-0.00001823,-0.00008499,-0.00003208,0.0000897
 2,-0.00011624,-0.00007585,0.00008604,-0.00004408,-0.00013948,0.0004172
 6,0.00005370,0.00004916,-0.00014521,-0.00001554,0.00003428,-0.00005755
 ,0.00000178,0.00009317,-0.00013343,-0.00024118,0.00044904,-0.00062284,
 0.00178946,0.00071499,-0.00212474,0.00439063,0.00186278,-0.01357746,-0
 .00146969,0.00068974,-0.00039772,0.00002478,-0.00005305,-0.00011349,-0
 .18872845,0.02223477,0.26320826,0.18596297,0.00077082,-0.00101115,0.00
 121709,-0.00035950,-0.00018638,-0.00022768,-0.00003340,0.00008622,-0.0
 0013018,0.00015529,0.00014981,-0.00025949,-0.00051367,0.00044944,0.000
 63637,0.00042003,-0.00007704,-0.00040520,0.00016183,-0.00002126,0.0000
 3414,0.00004345,0.00006890,-0.00011862,0.00064367,0.00060987,0.0001031
 5,0.00012689,0.00180753,0.00164047,-0.00223624,0.00134310,0.01008908,0
 .00032821,-0.00001926,-0.00214884,-0.00010638,-0.00068955,-0.00023564,
 0.02702392,-0.00893714,-0.03383885,-0.02570150,0.00751607,-0.00102409,
 0.00263795,-0.00046389,0.00022932,-0.00004191,0.00012183,0.00014594,-0
 .00045916,-0.00062374,-0.00028187,-0.00026267,0.00035400,0.00046165,0.
 00036806,0.00028246,-0.00003879,-0.00005370,-0.00009761,-0.00018772,0.
 00002568,-0.00011162,-0.00004232,-0.00001967,-0.00000151,-0.00012197,0
 .00029842,-0.00124296,-0.00024013,0.00091214,-0.00118453,0.01254371,0.
 00118735,-0.02392624,0.00107453,-0.00435216,0.00250160,-0.00027997,-0.
 00046209,0.00002861,0.23445155,-0.02328335,-0.38271618,-0.24835990,0.0
 2357137,0.40276091,-0.01054342,0.00409648,-0.00404093,0.00383095,0.004
 49485,0.00123539,0.00052949,-0.00026767,-0.00045685,0.00039026,0.00001
 585,0.00003213,0.00113775,0.00359357,0.00065121,0.00039874,-0.00038947
 ,-0.00036764,-0.00049785,-0.00004395,-0.00021976,-0.00007377,-0.000589
 68,0.00067216,0.01059532,0.00331582,-0.00106648,-0.02165812,-0.0073475
 3,0.00378957,-0.23058694,-0.10348541,-0.03570453,0.00636369,-0.0179774
 1,0.00124921,-0.00273860,-0.00560384,-0.00085450,-0.01389070,-0.005145
 55,-0.01182912,-0.00179958,-0.00020120,0.00180984,0.51438244,-0.007953
 95,0.01242835,-0.00552098,0.00237377,-0.00013165,0.00137277,0.00060821
 ,-0.00155799,-0.00189998,-0.00140696,-0.00125147,0.00200124,0.00151583
 ,-0.00105497,-0.00036541,-0.00084540,0.00019590,0.00037085,-0.00047258
 ,0.00011677,-0.00020557,-0.00017742,0.00002941,-0.00001671,0.00027162,
 -0.00217433,-0.00020579,-0.00044682,0.00498836,-0.00148954,-0.08845559
 ,-0.08784782,-0.00849252,-0.01106371,-0.03635432,-0.00032692,-0.000048
 80,0.00181705,0.00030004,0.00446766,0.00621761,0.00453114,0.00001860,-
 0.00120957,-0.00016425,-0.04292884,0.22034124,-0.00233452,0.00123829,-
 0.00341441,0.00097148,0.00195983,0.00110197,-0.00012096,0.00009722,0.0
 0038324,-0.00023333,-0.00015860,0.00058980,0.00007660,-0.00057761,-0.0
 0095127,-0.00032436,0.00006362,0.00036902,0.00008533,-0.00003201,0.000
 11170,-0.00001197,-0.00004338,0.00011763,-0.00366029,-0.00087450,-0.00
 264845,0.01167911,0.00077749,0.00491730,-0.04880986,-0.01691908,-0.048
 35517,-0.00069585,-0.00588169,0.00998964,0.00082134,0.00149293,0.00080
 226,-0.01913051,-0.00382116,-0.00670415,0.00070522,0.00007625,0.003065
 43,0.26887230,-0.12889745,0.23651662,0.00122470,-0.00364028,0.00078395
 ,-0.00032331,0.00005999,-0.00013128,-0.00013683,0.00055278,0.00062498,
 0.00049176,0.00047923,-0.00053190,-0.00359298,-0.00038412,-0.00155556,
 0.00053459,-0.00015226,-0.00024874,0.00159524,-0.00064795,0.00081876,0
 .00017128,-0.00003816,0.00008707,-0.08578817,0.04526981,-0.06976984,-0
 .02136347,0.00916715,-0.01282135,0.01122603,-0.00489369,-0.00761714,-0
 .00281541,0.00561019,0.00015705,0.00788543,0.00254215,-0.00151297,-0.0
 0341826,0.00074028,0.00429994,-0.00087808,0.00012368,-0.00100855,-0.00
 238453,-0.00004875,0.00051307,0.29037412,-0.00140474,-0.00094894,0.000
 22428,0.00044505,0.00026508,0.00017836,0.00018837,0.00002666,-0.000002
 02,0.00056527,0.00025072,-0.00031944,0.00459272,0.01271029,0.00403856,
 0.00159804,-0.00096073,-0.00143559,-0.00201883,0.00010997,-0.00082499,
 -0.00034517,-0.00167047,0.00182032,0.05718480,-0.09029841,0.09876272,0
 .00184810,0.00688573,0.00151881,-0.00087475,-0.00419324,0.00260931,0.0
 0026324,0.00168661,-0.00030444,0.00141733,-0.02869217,0.01164332,-0.00
 063675,0.00268211,-0.00108209,-0.00003484,-0.00010132,-0.00002530,0.00
 009115,0.00073280,-0.00037966,-0.01046589,0.11846314,0.00073227,-0.000
 21205,-0.00083848,-0.00015075,-0.00002593,0.00003021,-0.00012041,0.000
 21293,0.00033955,-0.00030286,-0.00008763,0.00033782,-0.00377786,-0.005
 61584,-0.00621030,-0.00092187,0.00030881,0.00132869,0.00193788,-0.0008
 2160,0.00153353,0.00008004,0.00037190,-0.00015510,-0.09052895,0.099534
 70,-0.20835390,-0.01467503,0.00513171,0.00434622,0.00299610,0.00131114
 ,-0.01449578,-0.00068745,0.00031462,0.00199071,-0.00174511,0.01744295,
 0.00456543,0.00518527,-0.00158240,0.00438310,0.00005959,-0.00011045,0.
 00050269,-0.00031629,-0.00039529,0.00196105,-0.15001000,-0.19234052,0.
 56594066,0.00111425,-0.00297533,0.00061024,-0.00029572,0.00004554,-0.0
 0010963,-0.00013144,0.00046437,0.00052108,0.00036846,0.00041152,-0.000
 42812,-0.00333503,-0.00169071,0.00050036,0.00035112,-0.00006952,-0.000
 18825,0.00116171,-0.00029835,0.00027151,0.00034601,0.00031326,-0.00077
 923,-0.09118266,0.03940881,0.09206559,-0.02015146,0.00377463,0.0193033
 2,0.00723110,-0.00311151,-0.00730697,-0.00257343,0.00468803,0.00045317
 ,0.00744497,0.00529241,0.00396456,-0.00039954,-0.00011640,0.00319495,0
 .00013496,-0.00008947,0.00001602,-0.00210883,0.00000168,0.00070832,0.0
 0519922,0.00120562,-0.00479362,0.14839025,-0.00118958,-0.00122538,0.00
 025875,0.00040329,0.00026107,0.00018332,0.00015064,0.00007234,0.000062
 16,0.00057582,0.00028341,-0.00036347,0.00378788,0.01060398,0.00447874,
 0.00157017,-0.00093464,-0.00160684,-0.00193293,0.00031976,-0.00119807,
 -0.00005087,-0.00133295,0.00150755,0.03828925,-0.05431719,-0.05285656,
 -0.00105368,0.00604176,-0.00027508,0.00032199,-0.00206873,-0.00038343,
 -0.00019923,0.00191382,0.00000067,0.00363078,-0.02375545,-0.02258604,-
 0.00025730,0.00064674,-0.00004992,-0.00007993,-0.00017142,-0.00005570,
 0.00003238,0.00054388,0.00020036,-0.00144448,0.00318805,0.00923225,-0.
 11055397,0.15180237,-0.00149772,0.00168010,-0.00140970,0.00049441,0.00
 017857,0.00030957,0.00015694,-0.00014389,-0.00009415,-0.00019342,-0.00
 024398,0.00056966,0.00372479,0.00901704,0.00044656,0.00074198,-0.00062
 264,-0.00070566,-0.00122779,0.00001560,-0.00039623,-0.00032831,-0.0014
 0425,0.00220284,0.11225924,-0.06822778,-0.23590499,0.01030730,-0.00281
 572,-0.00135129,-0.00565616,0.00160630,0.00117870,0.00207636,-0.002893
 29,0.00047250,0.00264196,-0.02059702,-0.00539612,0.00173554,-0.0001986
 8,-0.00039910,-0.00008314,-0.00008907,0.00016627,0.00159385,0.00025156
 ,0.00036241,0.00906727,0.00106622,-0.02531300,0.01343625,-0.11467836,0
 .69482313,0.00508999,-0.00340593,0.00198926,-0.00262499,-0.00198738,-0
 .00081243,-0.00023272,0.00022590,0.00028489,-0.00007854,0.00014384,-0.
 00008163,-0.00031578,-0.00056557,-0.00016234,-0.00001613,0.00006313,0.
 00005973,0.00012741,-0.00000343,0.00006255,0.00002534,0.00009706,-0.00
 009802,-0.00178085,-0.00072519,-0.00001967,0.00223777,-0.00022800,0.00
 078994,-0.02211846,0.00367221,-0.01624889,-0.00060159,0.00784892,0.000
 64131,0.00044874,0.00082581,0.00018681,0.00060556,-0.00064813,-0.00015
 130,-0.00038577,-0.00013784,-0.00036271,-0.25277623,0.14492618,-0.2101
 1326,0.00043899,-0.00002634,0.00027376,0.00034886,0.00005511,-0.000142
 07,0.27175615,-0.00381550,-0.00335425,-0.00148105,0.00119314,0.0026740
 8,0.00054103,-0.00004507,0.00058715,0.00073251,0.00068242,0.00048983,-
 0.00062698,-0.00046351,0.00055097,0.00011685,0.00028027,-0.00010474,-0
 .00014329,0.00014721,-0.00004361,0.00006407,0.00006710,-0.00004918,0.0
 0005182,0.00038355,0.00096848,0.00004713,-0.00111843,-0.00121921,0.000
 13810,-0.01474439,0.00386421,-0.00757662,0.00248613,-0.00198653,0.0013
 9778,-0.00006156,-0.00083442,-0.00011756,-0.00359975,-0.00019427,-0.00
 198858,0.00008171,0.00015244,0.00038891,0.16871708,-0.11534061,0.15194
 824,-0.00013366,-0.00018839,0.00008591,-0.00012361,-0.00019905,-0.0000
 3125,-0.15012197,0.11411698,0.00172562,-0.00186625,0.00255749,-0.00083
 330,-0.00103885,-0.00115641,0.00000210,0.00009444,-0.00011221,0.000208
 78,0.00013044,-0.00040788,-0.00018419,-0.00006455,0.00011527,0.0000839
 4,-0.00001181,-0.00005673,0.00005087,-0.00000688,0.00001460,0.00001758
 ,0.00004635,-0.00007453,-0.00065426,0.00008958,0.00014963,0.00268726,0
 .00104081,-0.00170900,-0.00185348,0.00172692,-0.00169473,0.00092383,0.
 00413966,-0.00113094,0.00019865,0.00016785,-0.00001721,-0.00206486,-0.
 00031670,0.00047748,0.00013085,0.00034496,0.00042124,-0.22469705,0.139
 12846,-0.19739118,0.00009490,-0.00001844,0.00002852,0.00014265,-0.0000
 9912,-0.00025224,0.22396163,-0.14350271,0.20021022,-0.00036354,0.00174
 123,-0.00060346,0.00011068,-0.00004203,0.00008229,0.00003256,-0.000237
 51,-0.00024685,-0.00031967,-0.00025189,0.00034327,0.00071693,-0.001281
 56,0.00001395,-0.00046084,0.00016953,0.00029760,-0.00025049,0.00018931
 ,-0.00021214,-0.00002718,0.00019442,-0.00022716,0.00605356,0.00488889,
 -0.01300463,-0.00312409,-0.00085468,0.00276800,-0.00423833,0.00432112,
 -0.00772255,0.00109490,-0.00290811,0.00131648,-0.00110399,0.00253207,-
 0.00054519,0.00278231,-0.00194096,0.00128306,0.00098128,-0.00044326,0.
 00120597,0.00123855,-0.00027709,0.00124151,-0.19857594,-0.05399849,0.2
 5485448,-0.00075760,0.00093072,-0.00365067,-0.00004895,0.00015139,-0.0
 0000455,0.19564800,0.00054096,-0.00030516,0.00023845,-0.00018211,-0.00
 007915,-0.00008412,-0.00006288,0.00004718,0.00004274,-0.00002972,0.000
 01803,-0.00004581,-0.00014154,-0.00117352,0.00108160,-0.00000809,0.000
 21830,-0.00013494,0.00008708,0.00023847,-0.00015448,0.00003451,0.00023
 554,-0.00029514,-0.00451724,-0.00267607,0.01511392,-0.00138023,-0.0012
 7368,-0.00120048,0.00236979,0.00132571,0.00080625,-0.00055595,0.000290
 83,-0.00020107,0.00173791,-0.00182516,-0.00112868,-0.00133800,-0.00236
 896,0.00042538,-0.00020700,0.00018719,-0.00021149,-0.00041547,-0.00028
 600,-0.00014306,-0.04344174,-0.02063725,0.06838357,0.00026928,0.000343
 45,-0.00115312,0.00001637,0.00002487,-0.00002054,0.04710526,0.02709415
 ,-0.00037318,0.00033060,0.00020588,0.00007938,0.00000580,0.00000172,0.
 00005912,-0.00010766,-0.00016207,0.00006597,-0.00000128,-0.00006252,0.
 00074623,0.00222752,0.00139540,0.00038096,-0.00015753,-0.00048609,-0.0
 0043281,0.00007967,-0.00033671,-0.00003916,-0.00021140,0.00017756,0.00
 855844,0.00918849,-0.02274825,0.00539564,-0.00210556,0.00196595,-0.004
 08338,0.00071803,0.00607635,0.00048924,-0.00043413,-0.00077211,-0.0007
 0327,-0.00465718,0.00026599,-0.00116342,0.00090907,-0.00563856,0.00106
 771,-0.00016229,0.00015899,0.00020094,0.00010005,-0.00086101,0.2271416
 4,0.07478720,-0.33139341,-0.00089057,0.00074715,-0.00084049,-0.0001360
 2,-0.00005429,-0.00004957,-0.23662510,-0.08109529,0.35344982,-0.000149
 11,0.00050458,0.00025428,0.00001705,-0.00005137,-0.00003684,0.00002732
 ,-0.00013066,-0.00016380,0.00000144,-0.00008069,-0.00005552,0.00090537
 ,0.00019270,-0.00035383,-0.00018317,0.00005480,0.00010727,-0.00022480,
 0.00006086,0.00000010,-0.00015304,-0.00002681,0.00020790,0.00019246,-0
 .00087201,0.01829187,-0.00073158,0.00036135,-0.00218971,-0.00090276,0.
 00053100,0.00132019,0.00022231,-0.00053360,-0.00015097,-0.00132571,-0.
 00050583,-0.00001631,0.00000689,0.00001034,-0.00057656,-0.00000697,0.0
 0002469,0.00000951,0.00019138,-0.00005766,-0.00023940,0.00013559,0.000
 40613,0.00191082,-0.05115520,0.06701393,-0.14545663,-0.00009880,0.0000
 3746,0.00006303,0.00061188,0.00011882,0.00026165,0.05261944,0.00035450
 ,0.00049031,-0.00032065,-0.00013851,-0.00009168,-0.00005290,-0.0000386
 6,0.00000607,0.00002675,-0.00025756,-0.00013444,0.00026249,-0.00000278
 ,-0.00063827,-0.00140353,-0.00026265,0.00012207,0.00026289,0.00023559,
 -0.00001526,0.00021260,-0.00004781,0.00006221,0.00034616,0.00232230,0.
 00178461,-0.01204606,0.00046334,-0.00100716,-0.00090168,-0.00022679,0.
 00084029,0.00032019,0.00012560,-0.00065094,0.00007816,0.00055910,-0.00
 161841,0.00177450,0.00003885,-0.00016482,-0.00011059,0.00000836,0.0000
 5353,0.00000157,0.00003884,-0.00020265,-0.00012604,0.00074573,0.000689
 78,-0.00113880,0.06315371,-0.09201581,0.19928365,-0.00002477,0.0000852
 3,0.00003640,0.00001163,0.00060122,-0.00010695,-0.06705802,0.09180411,
 0.00061521,-0.00055645,0.00032501,-0.00019830,-0.00006464,-0.00010617,
 -0.00006680,0.00007245,0.00007065,0.00000343,0.00007582,-0.00012571,-0
 .00100221,-0.00313031,-0.00083170,-0.00033830,0.00022928,0.00034479,0.
 00045791,-0.00001572,0.00025622,0.00007665,0.00051529,-0.00065975,-0.0
 0483467,0.00734619,-0.02354140,-0.00332147,-0.00012754,0.00272428,0.00
 193016,-0.00055138,-0.00129706,-0.00071721,0.00091600,0.00000332,0.000
 86488,0.00446153,0.00380137,-0.00022161,-0.00006138,0.00061109,0.00005
 160,0.00001343,0.00000426,-0.00055345,-0.00007571,0.00003758,0.0016186
 9,0.00008338,-0.00052822,-0.12069164,0.17748163,-0.42846867,0.00007844
 ,0.00000997,0.00007818,-0.00056430,-0.00022369,-0.00034687,0.12681294,
 -0.18639815,0.44764880\\-0.00000476,0.00000234,0.00001190,-0.00000271,
 -0.00000063,-0.00000111,-0.00000228,0.00000305,-0.00000138,0.00000355,
 -0.00000257,-0.00000198,-0.00000443,-0.00000421,-0.00000085,-0.0000042
 2,0.00000322,-0.00000164,0.00000361,-0.00000043,-0.00000297,0.00000240
 ,0.00000569,0.00000212,-0.00000826,0.00000868,-0.00000472,0.00000623,-
 0.00000996,0.00000018,-0.00000929,0.00000533,0.00000092,0.00001046,-0.
 00000550,-0.00000817,0.00000540,-0.00000750,0.00000529,0.00022591,0.00
 205099,0.00056706,0.00012714,-0.00122962,0.00264320,0.00708001,-0.0002
 4443,-0.00133759,-0.00346574,-0.00079276,0.00205838,-0.00284074,0.0001
 3455,-0.00087022,-0.00302061,0.00011792,-0.00154014,0.00106202,-0.0000
 9719,-0.00013284,0.00083631,0.00006305,-0.00138541\\\@


 PICNIC:  A SNACK IN THE GRASS.
 Job cpu time:       0 days  7 hours 33 minutes 46.0 seconds.
 File lengths (MBytes):  RWF=    508 Int=      0 D2E=      0 Chk=     12 Scr=      1
 Normal termination of Gaussian 09 at Thu Jul 20 15:47:46 2017.
27195.733u 30.397s 45:34.30 995.7%	0+0k 0+1481024io 0pf+0w
