 Entering Gaussian System, Link 0=g09
 Input=2IIIFreq.gjf
 Output=2IIIFreq.log
 Initial command:
 /share/apps/gaussian09/g09/l1.exe /state/partition1/313824.tatras.cnsi.ucsb.edu/Gau-9331.inp -scrdir=/state/partition1/313824.tatras.cnsi.ucsb.edu/
 Entering Link 1 = /share/apps/gaussian09/g09/l1.exe PID=      9332.
  
 Copyright (c) 1988,1990,1992,1993,1995,1998,2003,2009,2011,
            Gaussian, Inc.  All Rights Reserved.
  
 This is part of the Gaussian(R) 09 program.  It is based on
 the Gaussian(R) 03 system (copyright 2003, Gaussian, Inc.),
 the Gaussian(R) 98 system (copyright 1998, Gaussian, Inc.),
 the Gaussian(R) 94 system (copyright 1995, Gaussian, Inc.),
 the Gaussian 92(TM) system (copyright 1992, Gaussian, Inc.),
 the Gaussian 90(TM) system (copyright 1990, Gaussian, Inc.),
 the Gaussian 88(TM) system (copyright 1988, Gaussian, Inc.),
 the Gaussian 86(TM) system (copyright 1986, Carnegie Mellon
 University), and the Gaussian 82(TM) system (copyright 1983,
 Carnegie Mellon University). Gaussian is a federally registered
 trademark of Gaussian, Inc.
  
 This software contains proprietary and confidential information,
 including trade secrets, belonging to Gaussian, Inc.
  
 This software is provided under written license and may be
 used, copied, transmitted, or stored only in accord with that
 written license.
  
 The following legend is applicable only to US Government
 contracts under FAR:
  
                    RESTRICTED RIGHTS LEGEND
  
 Use, reproduction and disclosure by the US Government is
 subject to restrictions as set forth in subparagraphs (a)
 and (c) of the Commercial Computer Software - Restricted
 Rights clause in FAR 52.227-19.
  
 Gaussian, Inc.
 340 Quinnipiac St., Bldg. 40, Wallingford CT 06492
  
  
 ---------------------------------------------------------------
 Warning -- This program may not be used in any manner that
 competes with the business of Gaussian, Inc. or will provide
 assistance to any competitor of Gaussian, Inc.  The licensee
 of this program is prohibited from giving any competitor of
 Gaussian, Inc. access to this program.  By using this program,
 the user acknowledges that Gaussian, Inc. is engaged in the
 business of creating and licensing software in the field of
 computational chemistry and represents and warrants to the
 licensee that it is not a competitor of Gaussian, Inc. and that
 it will not use this program in any manner prohibited above.
 ---------------------------------------------------------------
  

 Cite this work as:
 Gaussian 09, Revision C.01,
 M. J. Frisch, G. W. Trucks, H. B. Schlegel, G. E. Scuseria, 
 M. A. Robb, J. R. Cheeseman, G. Scalmani, V. Barone, B. Mennucci, 
 G. A. Petersson, H. Nakatsuji, M. Caricato, X. Li, H. P. Hratchian, 
 A. F. Izmaylov, J. Bloino, G. Zheng, J. L. Sonnenberg, M. Hada, 
 M. Ehara, K. Toyota, R. Fukuda, J. Hasegawa, M. Ishida, T. Nakajima, 
 Y. Honda, O. Kitao, H. Nakai, T. Vreven, J. A. Montgomery, Jr., 
 J. E. Peralta, F. Ogliaro, M. Bearpark, J. J. Heyd, E. Brothers, 
 K. N. Kudin, V. N. Staroverov, T. Keith, R. Kobayashi, J. Normand, 
 K. Raghavachari, A. Rendell, J. C. Burant, S. S. Iyengar, J. Tomasi, 
 M. Cossi, N. Rega, J. M. Millam, M. Klene, J. E. Knox, J. B. Cross, 
 V. Bakken, C. Adamo, J. Jaramillo, R. Gomperts, R. E. Stratmann, 
 O. Yazyev, A. J. Austin, R. Cammi, C. Pomelli, J. W. Ochterski, 
 R. L. Martin, K. Morokuma, V. G. Zakrzewski, G. A. Voth, 
 P. Salvador, J. J. Dannenberg, S. Dapprich, A. D. Daniels, 
 O. Farkas, J. B. Foresman, J. V. Ortiz, J. Cioslowski, 
 and D. J. Fox, Gaussian, Inc., Wallingford CT, 2010.
 
 ******************************************
 Gaussian 09:  EM64L-G09RevC.01 23-Sep-2011
                11-Jul-2017 
 ******************************************
 %nprocshared=12
 Will use up to   12 processors via shared memory.
 %chk=/home/craigv/Monoi/2III/opt.chk
 -------------------------------------------------------------
 #p freq temp=373.15 uwb97xd/gen nosymm scf(qc,maxcycles=1000)
 -------------------------------------------------------------
 1/10=4,30=1,38=1,112=373150/1,3;
 2/12=2,15=1,17=6,18=5,40=1/2;
 3/5=7,11=2,16=1,25=1,30=1,71=2,74=-58,116=2/1,2,3;
 4//1;
 5/5=2,7=1000,8=3,38=5,98=1/8;
 8/6=4,10=90,11=11/1;
 11/6=1,8=1,9=11,15=111,16=1,31=1/1,2,10;
 10/6=1,31=1/2;
 6/7=2,8=2,9=2,10=2,18=1,28=1/1;
 7/8=1,10=1,25=1,30=1/1,2,3,16;
 1/10=4,30=1/3;
 99//99;
 Leave Link    1 at Tue Jul 11 18:02:22 2017, MaxMem=          0 cpu:       0.7
 (Enter /share/apps/gaussian09/g09/l101.exe)
 -------------------
 Title Card Required
 -------------------
 Charge =  0 Multiplicity = 2
 Symbolic Z-Matrix:
 H                    -2.42193   3.41901   3.29199 
 H                     2.91705   1.63835   6.34541 
 H                     1.33057   2.10849   6.96915 
 H                     2.60732   3.31722   6.79907 
 H                     3.84996   2.6444    3.58056 
 H                     3.48069   4.32779   3.94413 
 H                     2.7742    3.56045   2.51788 
 H                     1.73507   0.4361    3.77374 
 H                     0.60902   1.37961   2.78425 
 H                     0.10242   0.78836   4.35622 
 H                    -0.95396   7.50187   6.34789 
 H                    -1.07992   5.89672   7.0808 
 H                    -1.9781    6.27067   5.60526 
 H                     1.37582   6.89253   2.99723 
 H                    -0.35232   7.36284   3.14587 
 H                     2.1391    7.28817   6.15541 
 H                     2.90957   5.88923   5.4055 
 H                     2.07472   5.70914   6.95329 
 C                     0.18107   4.04692   4.5612 
 H                    -0.70904   3.58567   5.00791 
 Si                    1.58415   2.80559   4.5809 
 Si                    0.42647   5.85094   5.08908 
 C                     2.16419   2.43059   6.34068 
 C                     3.05796   3.39749   3.56004 
 C                     0.95209   1.19779   3.80596 
 C                    -1.03433   6.43447   6.13117 
 C                     0.3862    6.58292   3.34052 
 C                     2.04461   6.21346   5.98517 
 Cr                   -0.12875   4.76099   2.72221 
 O                     0.5454    4.11976   1.15105 
 O                    -2.01249   3.5436    2.43146 
 O                    -1.11793   2.24167   0.30132 
 Si                   -2.33264   2.26736   1.36959 
 Si                    0.35878   2.9956    0.0163 
 O(Iso=10000000)       1.52866   1.82419  -0.01749 
 O(Iso=10000000)       0.3296    3.6773   -1.48163 
 O(Iso=10000000)      -3.79819   2.42209   0.6238 
 O(Iso=10000000)      -2.43818   0.96278   2.36828 
 H(Iso=10000000)       1.47202   1.11301   0.62641 
 H(Iso=10000000)       0.72101   3.16321  -2.19328 
 H(Iso=10000000)      -3.8138    2.94951  -0.1795 
 H(Iso=10000000)      -3.05842   0.28782   2.07922 
 
 NAtoms=     42 NQM=        0 NQMF=       0 NMMI=     42 NMMIF=      0
                NMic=       0 NMicF=      0.
                    Isotopes and Nuclear Properties:
 (Nuclear quadrupole moments (NQMom) in fm**2, nuclear magnetic moments (NMagM)
  in nuclear magnetons)

  Atom         1           2           3           4           5           6           7           8           9          10
 IAtWgt=           1           1           1           1           1           1           1           1           1           1
 AtmWgt=   1.0078250   1.0078250   1.0078250   1.0078250   1.0078250   1.0078250   1.0078250   1.0078250   1.0078250   1.0078250
 NucSpn=           1           1           1           1           1           1           1           1           1           1
 AtZEff=   0.0000000   0.0000000   0.0000000   0.0000000   0.0000000   0.0000000   0.0000000   0.0000000   0.0000000   0.0000000
 NQMom=    0.0000000   0.0000000   0.0000000   0.0000000   0.0000000   0.0000000   0.0000000   0.0000000   0.0000000   0.0000000
 NMagM=    2.7928460   2.7928460   2.7928460   2.7928460   2.7928460   2.7928460   2.7928460   2.7928460   2.7928460   2.7928460

  Atom        11          12          13          14          15          16          17          18          19          20
 IAtWgt=           1           1           1           1           1           1           1           1          12           1
 AtmWgt=   1.0078250   1.0078250   1.0078250   1.0078250   1.0078250   1.0078250   1.0078250   1.0078250  12.0000000   1.0078250
 NucSpn=           1           1           1           1           1           1           1           1           0           1
 AtZEff=   0.0000000   0.0000000   0.0000000   0.0000000   0.0000000   0.0000000   0.0000000   0.0000000   0.0000000   0.0000000
 NQMom=    0.0000000   0.0000000   0.0000000   0.0000000   0.0000000   0.0000000   0.0000000   0.0000000   0.0000000   0.0000000
 NMagM=    2.7928460   2.7928460   2.7928460   2.7928460   2.7928460   2.7928460   2.7928460   2.7928460   0.0000000   2.7928460

  Atom        21          22          23          24          25          26          27          28          29          30
 IAtWgt=          28          28          12          12          12          12          12          12          52          16
 AtmWgt=  27.9769284  27.9769284  12.0000000  12.0000000  12.0000000  12.0000000  12.0000000  12.0000000  51.9405097  15.9949146
 NucSpn=           0           0           0           0           0           0           0           0           0           0
 AtZEff=   0.0000000   0.0000000   0.0000000   0.0000000   0.0000000   0.0000000   0.0000000   0.0000000   0.0000000   0.0000000
 NQMom=    0.0000000   0.0000000   0.0000000   0.0000000   0.0000000   0.0000000   0.0000000   0.0000000   0.0000000   0.0000000
 NMagM=    0.0000000   0.0000000   0.0000000   0.0000000   0.0000000   0.0000000   0.0000000   0.0000000   0.0000000   0.0000000

  Atom        31          32          33          34          35          36          37          38          39          40
 IAtWgt=          16          16          28          28    10000000    10000000    10000000    10000000    10000000    10000000
 AtmWgt=  15.9949146  15.9949146  27.9769284  27.9769284************************************************************************
 NucSpn=           0           0           0           0           0           0           0           0           0           0
 AtZEff=   0.0000000   0.0000000   0.0000000   0.0000000   0.0000000   0.0000000   0.0000000   0.0000000   0.0000000   0.0000000
 NQMom=    0.0000000   0.0000000   0.0000000   0.0000000   0.0000000   0.0000000   0.0000000   0.0000000   0.0000000   0.0000000
 NMagM=    0.0000000   0.0000000   0.0000000   0.0000000   0.0000000   0.0000000   0.0000000   0.0000000   0.0000000   0.0000000

  Atom        41          42
 IAtWgt=    10000000    10000000
 AtmWgt=************************
 NucSpn=           0           0
 AtZEff=   0.0000000   0.0000000
 NQMom=    0.0000000   0.0000000
 NMagM=    0.0000000   0.0000000
 Leave Link  101 at Tue Jul 11 18:02:22 2017, MaxMem=   33554432 cpu:       0.9
 (Enter /share/apps/gaussian09/g09/l103.exe)

 GradGradGradGradGradGradGradGradGradGradGradGradGradGradGradGradGradGrad
 Berny optimization.
 Initialization pass.
 Trust Radius=3.00D-01 FncErr=1.00D-07 GrdErr=1.00D-07
 Number of steps in this run=      2 maximum allowed number of steps=      2.
 GradGradGradGradGradGradGradGradGradGradGradGradGradGradGradGradGradGrad

 Leave Link  103 at Tue Jul 11 18:02:22 2017, MaxMem=   33554432 cpu:       0.2
 (Enter /share/apps/gaussian09/g09/l202.exe)
                          Input orientation:                          
 ---------------------------------------------------------------------
 Center     Atomic      Atomic             Coordinates (Angstroms)
 Number     Number       Type             X           Y           Z
 ---------------------------------------------------------------------
      1          1           0       -2.421926    3.419013    3.291994
      2          1           0        2.917046    1.638354    6.345407
      3          1           0        1.330572    2.108494    6.969150
      4          1           0        2.607322    3.317216    6.799071
      5          1           0        3.849964    2.644399    3.580563
      6          1           0        3.480692    4.327789    3.944126
      7          1           0        2.774204    3.560447    2.517881
      8          1           0        1.735068    0.436098    3.773743
      9          1           0        0.609015    1.379613    2.784247
     10          1           0        0.102416    0.788364    4.356216
     11          1           0       -0.953957    7.501874    6.347886
     12          1           0       -1.079923    5.896717    7.080796
     13          1           0       -1.978101    6.270665    5.605261
     14          1           0        1.375815    6.892534    2.997231
     15          1           0       -0.352316    7.362839    3.145869
     16          1           0        2.139099    7.288173    6.155406
     17          1           0        2.909570    5.889229    5.405499
     18          1           0        2.074724    5.709139    6.953285
     19          6           0        0.181067    4.046921    4.561200
     20          1           0       -0.709038    3.585665    5.007908
     21         14           0        1.584154    2.805586    4.580903
     22         14           0        0.426468    5.850937    5.089078
     23          6           0        2.164195    2.430593    6.340678
     24          6           0        3.057959    3.397492    3.560041
     25          6           0        0.952085    1.197793    3.805960
     26          6           0       -1.034330    6.434472    6.131168
     27          6           0        0.386202    6.582921    3.340517
     28          6           0        2.044611    6.213456    5.985167
     29         24           0       -0.128750    4.760990    2.722213
     30          8           0        0.545402    4.119763    1.151050
     31          8           0       -2.012491    3.543595    2.431464
     32          8           0       -1.117931    2.241665    0.301322
     33         14           0       -2.332641    2.267357    1.369592
     34         14           0        0.358780    2.995599    0.016298
     35          8           0        1.528661    1.824193   -0.017492
     36          8           0        0.329600    3.677299   -1.481629
     37          8           0       -3.798190    2.422088    0.623798
     38          8           0       -2.438175    0.962776    2.368284
     39          1           0        1.472018    1.113006    0.626407
     40          1           0        0.721006    3.163209   -2.193283
     41          1           0       -3.813801    2.949512   -0.179499
     42          1           0       -3.058420    0.287818    2.079215
 ---------------------------------------------------------------------
                    Distance matrix (angstroms):
                    1          2          3          4          5
     1  H    0.000000
     2  H    6.403023   0.000000
     3  H    5.414811   1.768329   0.000000
     4  H    6.132152   1.766442   1.766360   0.000000
     5  H    6.326129   3.086556   4.256413   3.515058   0.000000
     6  H    6.007666   3.649234   4.324241   3.151943   1.761347
     7  H    5.255380   4.285417   4.899596   4.291340   1.767964
     8  H    5.139111   3.075052   3.629208   4.267819   3.063772
     9  H    3.688301   4.251566   4.308750   4.885320   3.568971
    10  H    3.798050   3.549860   3.174671   4.317081   4.253307
    11  H    5.306898   7.026061   5.890126   5.513405   7.370943
    12  H    4.721759   5.886443   4.491501   4.508766   6.865347
    13  H    3.698662   6.780014   5.489187   5.583381   7.156504
    14  H    5.155101   6.418106   6.218137   5.362229   4.950590
    15  H    4.456277   7.327721   6.712506   6.202613   6.333387
    16  H    6.631175   5.706291   5.305183   4.049943   5.578666
    17  H    6.244495   4.353553   4.385453   2.940858   3.839747
    18  H    6.234548   4.201228   3.676773   2.455349   4.890742
    19  C    2.963229   4.058346   3.298042   3.380421   4.048397
    20  H    2.430251   4.327749   3.191945   3.778700   4.869065
    21  Si   4.252794   2.500501   2.500793   2.495778   2.482047
    22  Si   4.154168   5.052445   4.284618   3.754989   4.927254
    23  C    5.594994   1.092909   1.092544   1.092056   3.241260
    24  C    5.486479   3.297376   4.033287   3.271213   1.093088
    25  C    4.072092   3.240981   3.313367   4.023739   3.246718
    26  C    4.367989   6.217879   5.000906   4.839939   6.687792
    27  C    4.230632   6.315321   5.837749   5.249743   5.250450
    28  C    5.917098   4.671453   4.281213   3.060603   4.666861
    29  Cr   2.717390   5.670561   5.215537   5.117748   4.587689
    30  O    3.725551   6.226028   6.205802   6.065949   4.358826
    31  O    0.961077   6.576415   5.816028   6.361597   6.041305
    32  O    3.468526   7.292187   7.104423   7.566707   5.966205
    33  Si   2.242747   7.260413   6.693237   7.415166   6.576865
    34  Si   4.317614   6.960205   7.076262   7.152999   5.001569
    35  O    5.394746   6.515262   6.995229   7.061031   4.359723
    36  O    5.515894   8.492035   8.653251   8.595794   6.251850
    37  O    3.163421   8.856943   8.164927   8.942362   8.202813
    38  O    2.624234   6.704648   6.056739   7.115638   6.621040
    39  H    5.252221   5.922082   6.421946   6.652010   4.089845
    40  H    6.327063   8.947458   9.243061   9.189360   6.587628
    41  H    3.769484   9.465613   8.847320   9.490335   8.541923
    42  H    3.417651   7.465289   6.818326   7.972134   7.452066
                    6          7          8          9         10
     6  H    0.000000
     7  H    1.766950   0.000000
     8  H    4.268664   3.523996   0.000000
     9  H    4.275931   3.084644   1.771248   0.000000
    10  H    4.910203   4.266424   1.768875   1.754225   0.000000
    11  H    5.959781   6.641007   7.986380   7.254274   7.081941
    12  H    5.753212   6.413474   6.977043   6.458876   5.909021
    13  H    6.027649   6.281847   7.154317   6.210771   5.995356
    14  H    3.450367   3.645281   6.512880   5.570067   6.381949
    15  H    4.953856   4.962628   7.261621   6.070743   6.700406
    16  H    3.931095   5.246988   7.265431   6.972586   7.045046
    17  H    2.213569   3.712127   5.811946   5.700890   5.916074
    18  H    3.597209   4.977847   6.166832   6.186596   5.903287
    19  C    3.368559   3.337090   4.009121   3.233455   3.265945
    20  H    4.385911   4.281804   4.173319   3.398323   2.984636
    21  Si   2.513850   2.498418   2.507739   2.492442   2.513009
    22  Si   3.599886   4.167645   5.723899   5.033717   5.125597
    23  C    3.328059   4.032674   3.278920   4.021361   3.299385
    24  C    1.091640   1.092323   3.250471   3.266653   4.022024
    25  C    4.026142   3.249831   1.092831   1.093002   1.091948
    26  C    5.441203   5.985048   7.014806   6.281247   6.026706
    27  C    3.876317   3.938862   6.307976   5.237700   5.889743
    28  C    3.127925   4.426379   6.193874   5.972676   5.988090
    29  Cr   3.835206   3.148047   4.825373   3.461482   4.301763
    30  O    4.057151   2.673690   4.675811   3.190580   4.644087
    31  O    5.751362   4.787505   5.049995   3.417538   3.970995
    32  O    6.226497   4.669158   4.843282   3.144899   4.476996
    33  Si   6.683446   5.391708   5.067515   3.382703   4.127571
    34  Si   5.191233   3.522960   4.750117   3.214898   4.875705
    35  O    5.076695   3.315731   4.042632   2.982137   4.715553
    36  O    6.308037   4.688904   6.332429   4.853363   6.517514
    37  O    8.224257   6.933958   6.669577   5.017744   5.640454
    38  O    6.988532   5.825733   4.434937   3.103570   3.230618
    39  H    5.037545   3.356088   3.230035   2.339258   3.986562
    40  H    6.829341   5.154463   6.638588   5.288626   6.994175
    41  H    8.491970   7.144992   7.261909   5.550646   6.370245
    42  H    7.909440   6.702390   5.086348   3.890908   3.927616
                   11         12         13         14         15
    11  H    0.000000
    12  H    1.769054   0.000000
    13  H    1.765287   1.767417   0.000000
    14  H    4.126260   4.868039   4.293867   0.000000
    15  H    3.261014   4.261757   3.143983   1.797141   0.000000
    16  H    3.106399   3.626927   4.276601   3.273103   3.907689
    17  H    4.291335   4.326977   4.906600   3.026348   4.232890
    18  H    3.571178   3.162790   4.307885   4.187990   4.808499
    19  C    4.051818   3.370490   3.270643   3.459904   3.644581
    20  H    4.146350   3.126561   3.029286   4.396000   4.226285
    21  Si   5.623109   4.785589   5.074026   4.388003   5.155366
    22  Si   2.493143   2.497649   2.494909   2.522302   2.582327
    23  C    5.953219   4.804799   5.696105   5.631083   6.392705
    24  C    6.380713   5.980293   6.148166   3.919398   5.246474
    25  C    7.059449   6.077293   6.128418   5.767466   6.336006
    26  C    1.092142   1.092269   1.092756   3.979972   3.199847
    27  C    3.418299   4.075547   3.288844   1.092263   1.091590
    28  C    3.283747   3.326175   4.041016   3.136271   3.889467
    29  Cr   4.619406   4.603461   3.743152   2.623515   2.645578
    30  O    6.379174   6.400089   5.552877   3.433108   3.911872
    31  O    5.668053   5.293690   4.184624   4.797510   4.225302
    32  O    8.016085   7.702085   6.715989   5.925983   5.907964
    33  Si   7.354206   6.881817   5.838927   6.147692   5.748111
    34  Si   7.881548   7.771324   6.886478   5.010631   5.419655
    35  O    8.883552   8.589287   7.980216   5.899152   6.649927
    36  O    8.807735   8.956991   7.891454   5.611817   5.954994
    37  O    8.164501   7.820156   6.552804   7.237983   6.530384
    38  O    7.797431   6.956752   6.234050   7.078427   6.776153
    39  H    8.912817   8.429438   7.955737   6.247640   6.981139
    40  H    9.725281   9.834834   8.818092   6.424802   6.877169
    41  H    8.456327   8.298915   6.918331   7.250597   6.520537
    42  H    8.642507   7.771101   7.028125   8.007963   7.649619
                   16         17         18         19         20
    16  H    0.000000
    17  H    1.764378   0.000000
    18  H    1.770340   1.767779   0.000000
    19  C    4.108661   3.398775   3.474331   0.000000
    20  H    4.810115   4.307994   4.005367   1.097539   0.000000
    21  Si   4.783368   3.456232   3.781465   1.873487   2.459591
    22  Si   2.477056   2.503474   2.492413   1.895614   2.535236
    23  C    4.861177   3.659550   3.336489   3.116385   3.371340
    24  C    4.766301   3.104269   4.221915   3.114576   4.040049
    25  C    6.634880   5.329150   5.614109   3.046701   3.147371
    26  C    3.286342   4.047003   3.296695   3.105220   3.079485
    27  C    3.390225   3.333578   4.082486   2.821957   3.600456
    28  C    1.092211   1.090547   1.092014   3.192860   3.929746
    29  Cr   4.828727   4.207652   4.863770   1.996936   2.634867
    30  O    6.133700   5.178864   6.207324   3.430331   4.090750
    31  O    6.717537   6.210762   6.468522   3.098517   2.887702
    32  O    8.387240   7.455073   8.152609   4.805508   4.911770
    33  Si   8.252822   7.542366   7.902427   4.435306   4.196590
    34  Si   7.699635   6.627451   7.643923   4.668297   5.138539
    35  O    8.266340   6.916665   7.998920   5.265069   5.776221
    36  O    8.639271   7.679936   8.849949   6.055945   6.572766
    37  O    9.461970   8.937549   9.238952   5.829040   5.487913
    38  O    8.677809   7.879911   7.994777   4.602310   4.103301
    39  H    8.315498   6.907864   7.843282   5.075136   5.483484
    40  H    9.419497   8.364358   9.590309   6.833412   7.353954
    41  H    9.715556   9.221597   9.652299   6.295832   6.078934
    42  H    9.624682   8.834980   8.916078   5.548458   4.997263
                   21         22         23         24         25
    21  Si   0.000000
    22  Si   3.297369   0.000000
    23  C    1.890470   4.035462   0.000000
    24  C    1.888018   3.909232   3.076630   0.000000
    25  C    1.893422   4.855349   3.068192   3.055136   0.000000
    26  C    4.735884   1.886901   5.128889   5.707957   6.064260
    27  C    4.152337   1.896019   5.422550   4.163344   5.434746
    28  C    3.714506   1.884883   3.801413   3.851982   5.576686
    29  Cr   3.195680   2.664264   4.876642   3.565978   3.878026
    30  O    3.817062   4.303391   5.692629   3.554976   3.968860
    31  O    4.254480   4.281969   5.827987   5.196585   4.022529
    32  O    5.092552   6.191496   6.876181   5.421554   4.202038
    33  Si   5.093475   5.855707   6.705213   5.927381   4.227207
    34  Si   4.730039   5.821566   6.601253   4.472717   4.236231
    35  O    4.702281   6.595950   6.418563   4.196756   3.917091
    36  O    6.252046   6.921580   8.130713   5.739396   5.873162
    37  O    6.691441   7.038712   8.260316   7.521949   5.847236
    38  O    4.946793   6.285143   6.254295   6.128264   3.689988
    39  H    4.302957   6.592162   5.904916   4.042313   3.222899
    40  H    6.838312   7.768102   8.686081   6.214256   6.317213
    41  H    7.198615   7.359080   8.861062   7.836194   6.454926
    42  H    5.843894   7.221635   7.072995   7.019474   4.460253
                   26         27         28         29         30
    26  C    0.000000
    27  C    3.134913   0.000000
    28  C    3.090314   3.143406   0.000000
    29  Cr   3.904048   1.991710   4.180912   0.000000
    30  O    5.714456   3.299433   5.477213   1.825981   0.000000
    31  O    4.796017   3.977136   6.018059   2.261651   2.917918
    32  O    7.181485   5.508686   7.621213   3.631279   2.648767
    33  Si   6.459339   5.468157   7.485691   3.592343   3.429621
    34  Si   7.152499   4.890814   6.987419   3.267456   1.608177
    35  O    8.101211   5.935228   7.454110   4.344856   2.757160
    36  O    8.210785   5.630181   8.070093   4.365405   2.678310
    37  O    7.353181   6.496324   8.789600   4.831004   4.693281
    38  O    6.787454   6.364619   7.794027   4.459276   4.511093
    39  H    8.056189   6.202045   7.420159   4.501405   3.189742
    40  H    9.114760   6.513790   8.828532   5.238043   3.482872
    41  H    7.726249   6.575120   9.109195   5.028020   4.705582
    42  H    7.635222   7.285920   8.741314   5.385692   5.341613
                   31         32         33         34         35
    31  O    0.000000
    32  O    2.651936   0.000000
    33  Si   1.690814   1.617832   0.000000
    34  Si   3.428739   1.682359   3.099272   0.000000
    35  O    4.636107   2.698217   4.126748   1.655885   0.000000
    36  O    4.562408   2.708377   4.147882   1.646011   2.648669
    37  O    2.777437   2.705611   1.651661   4.240091   5.398525
    38  O    2.616453   2.766032   1.646346   4.181766   4.708477
    39  H    4.616037   2.843833   4.044784   2.270614   0.961042
    40  H    5.385628   3.233263   4.777174   2.245339   2.679428
    41  H    3.227194   2.828419   2.249189   4.177427   5.462096
    42  H    3.437751   3.277792   2.224611   4.823376   5.272375
                   36         37         38         39         40
    36  O    0.000000
    37  O    4.800732   0.000000
    38  O    5.463611   2.649993   0.000000
    39  H    3.510631   5.430359   4.283260   0.000000
    40  H    0.961217   5.376647   5.969106   3.566231   0.000000
    41  H    4.403747   0.961096   3.511505   5.653505   4.966434
    42  H    5.970500   2.687119   0.961162   4.828712   6.387971
                   41         42
    41  H    0.000000
    42  H    3.571695   0.000000
 Symmetry turned off by external request.
 Stoichiometry    C7H23CrO7Si4(2)
 Framework group  C1[X(C7H23CrO7Si4)]
 Deg. of freedom   120
 Full point group                 C1      NOp   1
 Rotational constants (GHZ):      0.0000026      0.0000011      0.0000008
 Leave Link  202 at Tue Jul 11 18:02:22 2017, MaxMem=   33554432 cpu:       0.0
 (Enter /share/apps/gaussian09/g09/l301.exe)
 General basis read from cards:  (5D, 7F)
 Centers:  29
 def2TZVP
 ****
 Centers:   1  2  3  4  5  6  7  8  9 10 11 12 13 14 15 16 17 18 20 39
 Centers:  40 41 42 19 23 24 25 26 27 28 30 31 32 35 36 37 38 21 22 33
 Centers:  34
 TZVP
 ****
 Ernie: Thresh=  0.10000D-02 Tol=  0.10000D-05 Strict=F.
 Integral buffers will be    131072 words long.
 Raffenetti 2 integral format.
 Two-electron integral symmetry is turned off.
   537 basis functions,   964 primitive gaussians,   562 cartesian basis functions
   101 alpha electrons      100 beta electrons
       nuclear repulsion energy      2790.2450710798 Hartrees.
 IExCor= 4639 DFT=T Ex+Corr=wB97XD ExCW=0 ScaHFX=  1.000000
 ScaDFX=  1.000000  1.000000  1.000000  1.000000 ScalE2=  1.000000  1.000000
 IRadAn=      0 IRanWt=     -1 IRanGd=            0 ICorTp=0
  HFx wShort=  0.000000 wLong=  0.200000 cFull=  0.222036 cShort=  0.000000 cLong=  0.777964
  DFx wShort=  0.000000 wLong=  0.200000 cFull=  0.000000 cShort=  0.000000 cLong=  1.000000
 NAtoms=   42 NActive=   42 NUniq=   42 SFac= 1.00D+00 NAtFMM=   60 NAOKFM=F Big=F
 R6Disp: Dispersion energy =        -0.0380819075 Hartrees.
 Nuclear repulsion after empirical dispersion term =     2790.2069891724 Hartrees.
 Leave Link  301 at Tue Jul 11 18:02:22 2017, MaxMem=   33554432 cpu:       0.6
 (Enter /share/apps/gaussian09/g09/l302.exe)
 NPDir=0 NMtPBC=     1 NCelOv=     1 NCel=       1 NClECP=     1 NCelD=      1
         NCelK=      1 NCelE2=     1 NClLst=     1 CellRange=     0.0.
 One-electron integrals computed using PRISM.
 PrsmSu:  requested number of processors reduced to:   8 ShMem   1 Linda.
 NBasis=   537 RedAO= T  NBF=   537
 NBsUse=   537 1.00D-06 NBFU=   537
 Precomputing XC quadrature grid using
 IXCGrd= 2 IRadAn=           0 IRanWt=          -1 IRanGd=           0 AccXCQ= 0.00D+00.
 NRdTot=    2700 NPtTot=      347146 NUsed=      366605 NTot=      366637
 NSgBfM=   538   539   539   539   541 NAtAll=    42    42.
 Leave Link  302 at Tue Jul 11 18:02:23 2017, MaxMem=   33554432 cpu:      12.9
 (Enter /share/apps/gaussian09/g09/l303.exe)
 DipDrv:  MaxL=1.
 Leave Link  303 at Tue Jul 11 18:02:24 2017, MaxMem=   33554432 cpu:       1.8
 (Enter /share/apps/gaussian09/g09/l401.exe)
 Harris functional with IExCor= 4639 diagonalized for initial guess.
 ExpMin= 3.41D-02 ExpMax= 2.54D+05 ExpMxC= 2.46D+03 IAcc=3 IRadAn=         5 AccDes= 0.00D+00
 HarFok:  IExCor= 4639 AccDes= 0.00D+00 IRadAn=         5 IDoV= 1
 ScaDFX=  1.000000  1.000000  1.000000  1.000000
 FoFCou: FMM=F IPFlag=           0 FMFlag=      100000 FMFlg1=           0
         NFxFlg=           0 DoJE=T BraDBF=F KetDBF=T FulRan=T
         Omega=  0.000000  0.000000  1.000000  0.000000  0.000000 ICntrl=     500 IOpCl=  0
         NMat0=    1 NMatS0=    1 NMatT0=    0 NMatD0=    1 NMtDS0=    0 NMtDT0=    0
         I1Cent=           4 NGrid=           0.
 Symmetry not used in FoFCou.
 CoulSu:  requested number of processors reduced to:  11 ShMem   1 Linda.
 CoulSu:  requested number of processors reduced to:  11 ShMem   1 Linda.
 Harris En= -2942.56687970594    
 Initial guess <Sx>= 0.0000 <Sy>= 0.0000 <Sz>= 0.5000 <S**2>= 0.7500 S= 0.5000
 Leave Link  401 at Tue Jul 11 18:02:30 2017, MaxMem=   33554432 cpu:      74.6
 (Enter /share/apps/gaussian09/g09/l508.exe)
 Direct SCF.
 Tight linear equation convergence will be used.
 UwB97XD wavefunction.
 Quadratic Convergence SCF Method.
 Line search only if initial step raises energy.
 Two-electron integral symmetry not used.
 ReadGW:  IGet=1 IStart=           2 Next=      366216 LGW=      366214.
 Pruned (  75, 302) grid will be used in CalDFT.
 FoFJK:  IHMeth= 1 ICntrl=     0 DoSepK=T KAlg= 1 I1Cent= 0 FoldK=F
 FoFCou: FMM=F IPFlag=           0 FMFlag=      100000 FMFlg1=           0
         NFxFlg=           0 DoJE=T BraDBF=F KetDBF=F FulRan=T
         Omega=  0.000000  0.000000  1.000000  0.000000  0.000000 ICntrl=     500 IOpCl=  0
         NMat0=    1 NMatS0=    1 NMatT0=    0 NMatD0=    1 NMtDS0=    0 NMtDT0=    0
         I1Cent=           0 NGrid=           0.
 Symmetry not used in FoFCou.
 CoulSu:  requested number of processors reduced to:  10 ShMem   1 Linda.
 CoulSu:  requested number of processors reduced to:  10 ShMem   1 Linda.
 CoulSu:  requested number of processors reduced to:  10 ShMem   1 Linda.
 Iteration   1 EE= -3005.34959466938                                    Grad=3.703D+00
 Gradient too large for Newton-Raphson -- use scaled steepest descent instead.
     ILin= 1 X=0.000D+00 Y=-3.005349594669D+03 DE= 0.00D+00
 FoFJK:  IHMeth= 1 ICntrl=     0 DoSepK=T KAlg= 1 I1Cent= 0 FoldK=F
 CoulSu:  requested number of processors reduced to:  10 ShMem   1 Linda.
 CoulSu:  requested number of processors reduced to:  10 ShMem   1 Linda.
 CoulSu:  requested number of processors reduced to:  10 ShMem   1 Linda.
     ILin= 2 X=3.000D-01 Y=-3.007689466849D+03 DE=-2.34D+00
 FoFJK:  IHMeth= 1 ICntrl=     0 DoSepK=T KAlg= 1 I1Cent= 0 FoldK=F
 CoulSu:  requested number of processors reduced to:  10 ShMem   1 Linda.
 CoulSu:  requested number of processors reduced to:  10 ShMem   1 Linda.
 CoulSu:  requested number of processors reduced to:  10 ShMem   1 Linda.
     ILin= 3 X=4.243D-01 Y=-3.007370747880D+03 DE=-2.02D+00
     An  expanding polynomial of degree  3 produced  0.3096
 FoFJK:  IHMeth= 1 ICntrl=     0 DoSepK=T KAlg= 1 I1Cent= 0 FoldK=F
 CoulSu:  requested number of processors reduced to:  10 ShMem   1 Linda.
 CoulSu:  requested number of processors reduced to:  10 ShMem   1 Linda.
 CoulSu:  requested number of processors reduced to:  10 ShMem   1 Linda.
 Iteration   2 EE= -3007.69583830218     Delta-E=       -2.346243632797 Grad=2.035D+00
 Gradient too large for Newton-Raphson -- use scaled steepest descent instead.
     ILin= 1 X=0.000D+00 Y=-3.007695838302D+03 DE= 0.00D+00
 FoFJK:  IHMeth= 1 ICntrl=     0 DoSepK=T KAlg= 1 I1Cent= 0 FoldK=F
 CoulSu:  requested number of processors reduced to:  10 ShMem   1 Linda.
 CoulSu:  requested number of processors reduced to:  10 ShMem   1 Linda.
 CoulSu:  requested number of processors reduced to:  10 ShMem   1 Linda.
     ILin= 2 X=3.096D-01 Y=-3.008560693605D+03 DE=-8.65D-01
 FoFJK:  IHMeth= 1 ICntrl=     0 DoSepK=T KAlg= 1 I1Cent= 0 FoldK=F
 CoulSu:  requested number of processors reduced to:  10 ShMem   1 Linda.
 CoulSu:  requested number of processors reduced to:  10 ShMem   1 Linda.
 CoulSu:  requested number of processors reduced to:  10 ShMem   1 Linda.
     ILin= 3 X=4.379D-01 Y=-3.008439931001D+03 DE=-7.44D-01
     An  expanding polynomial of degree  3 produced  0.3186
 FoFJK:  IHMeth= 1 ICntrl=     0 DoSepK=T KAlg= 1 I1Cent= 0 FoldK=F
 CoulSu:  requested number of processors reduced to:  10 ShMem   1 Linda.
 CoulSu:  requested number of processors reduced to:  10 ShMem   1 Linda.
 CoulSu:  requested number of processors reduced to:  10 ShMem   1 Linda.
 Iteration   3 EE= -3008.56327373016     Delta-E=       -0.867435427986 Grad=1.394D+00
 Gradient too large for Newton-Raphson -- use scaled steepest descent instead.
     ILin= 1 X=0.000D+00 Y=-3.008563273730D+03 DE= 0.00D+00
 FoFJK:  IHMeth= 1 ICntrl=     0 DoSepK=T KAlg= 1 I1Cent= 0 FoldK=F
 CoulSu:  requested number of processors reduced to:  10 ShMem   1 Linda.
 CoulSu:  requested number of processors reduced to:  10 ShMem   1 Linda.
 CoulSu:  requested number of processors reduced to:  10 ShMem   1 Linda.
     ILin= 2 X=3.186D-01 Y=-3.009133772595D+03 DE=-5.70D-01
 FoFJK:  IHMeth= 1 ICntrl=     0 DoSepK=T KAlg= 1 I1Cent= 0 FoldK=F
 CoulSu:  requested number of processors reduced to:  10 ShMem   1 Linda.
 CoulSu:  requested number of processors reduced to:  10 ShMem   1 Linda.
 CoulSu:  requested number of processors reduced to:  10 ShMem   1 Linda.
     ILin= 3 X=4.505D-01 Y=-3.009305598705D+03 DE=-7.42D-01
 FoFJK:  IHMeth= 1 ICntrl=     0 DoSepK=T KAlg= 1 I1Cent= 0 FoldK=F
 CoulSu:  requested number of processors reduced to:  10 ShMem   1 Linda.
 CoulSu:  requested number of processors reduced to:  10 ShMem   1 Linda.
 CoulSu:  requested number of processors reduced to:  10 ShMem   1 Linda.
     ILin= 4 X=6.371D-01 Y=-3.009474401773D+03 DE=-9.11D-01
 FoFJK:  IHMeth= 1 ICntrl=     0 DoSepK=T KAlg= 1 I1Cent= 0 FoldK=F
 CoulSu:  requested number of processors reduced to:  10 ShMem   1 Linda.
 CoulSu:  requested number of processors reduced to:  10 ShMem   1 Linda.
 CoulSu:  requested number of processors reduced to:  10 ShMem   1 Linda.
     ILin= 5 X=9.010D-01 Y=-3.009545177678D+03 DE=-9.82D-01
 FoFJK:  IHMeth= 1 ICntrl=     0 DoSepK=T KAlg= 1 I1Cent= 0 FoldK=F
 CoulSu:  requested number of processors reduced to:  10 ShMem   1 Linda.
 CoulSu:  requested number of processors reduced to:  10 ShMem   1 Linda.
 CoulSu:  requested number of processors reduced to:  10 ShMem   1 Linda.
     ILin= 6 X=1.274D+00 Y=-3.009268205061D+03 DE=-7.05D-01
     An  expanding polynomial of degree  6 produced  0.8581
 FoFJK:  IHMeth= 1 ICntrl=     0 DoSepK=T KAlg= 1 I1Cent= 0 FoldK=F
 CoulSu:  requested number of processors reduced to:  10 ShMem   1 Linda.
 CoulSu:  requested number of processors reduced to:  10 ShMem   1 Linda.
 CoulSu:  requested number of processors reduced to:  10 ShMem   1 Linda.
 Iteration   4 EE= -3009.54807986904     Delta-E=       -0.984806138878 Grad=5.540D-01
 Gradient too large for Newton-Raphson -- use scaled steepest descent instead.
     ILin= 1 X=0.000D+00 Y=-3.009548079869D+03 DE= 0.00D+00
 FoFJK:  IHMeth= 1 ICntrl=     0 DoSepK=T KAlg= 1 I1Cent= 0 FoldK=F
 CoulSu:  requested number of processors reduced to:  10 ShMem   1 Linda.
 CoulSu:  requested number of processors reduced to:  10 ShMem   1 Linda.
 CoulSu:  requested number of processors reduced to:  10 ShMem   1 Linda.
     ILin= 2 X=8.581D-01 Y=-3.009273021306D+03 DE= 2.75D-01
 FoFJK:  IHMeth= 1 ICntrl=     0 DoSepK=T KAlg= 1 I1Cent= 0 FoldK=F
 CoulSu:  requested number of processors reduced to:  10 ShMem   1 Linda.
 CoulSu:  requested number of processors reduced to:  10 ShMem   1 Linda.
 CoulSu:  requested number of processors reduced to:  10 ShMem   1 Linda.
     ILin= 3 X=6.068D-01 Y=-3.009605484057D+03 DE=-5.74D-02
     A contracting polynomial of degree  3 produced  0.3320
 FoFJK:  IHMeth= 1 ICntrl=     0 DoSepK=T KAlg= 1 I1Cent= 0 FoldK=F
 CoulSu:  requested number of processors reduced to:  10 ShMem   1 Linda.
 CoulSu:  requested number of processors reduced to:  10 ShMem   1 Linda.
 CoulSu:  requested number of processors reduced to:  10 ShMem   1 Linda.
 Iteration   5 EE= -3009.76544742227     Delta-E=       -0.217367553229 Grad=6.439D-01
 Gradient too large for Newton-Raphson -- use scaled steepest descent instead.
     ILin= 1 X=0.000D+00 Y=-3.009765447422D+03 DE= 0.00D+00
 FoFJK:  IHMeth= 1 ICntrl=     0 DoSepK=T KAlg= 1 I1Cent= 0 FoldK=F
 CoulSu:  requested number of processors reduced to:  10 ShMem   1 Linda.
 CoulSu:  requested number of processors reduced to:  10 ShMem   1 Linda.
 CoulSu:  requested number of processors reduced to:  10 ShMem   1 Linda.
     ILin= 2 X=3.320D-01 Y=-3.009857988604D+03 DE=-9.25D-02
 FoFJK:  IHMeth= 1 ICntrl=     0 DoSepK=T KAlg= 1 I1Cent= 0 FoldK=F
 CoulSu:  requested number of processors reduced to:  10 ShMem   1 Linda.
 CoulSu:  requested number of processors reduced to:  10 ShMem   1 Linda.
 CoulSu:  requested number of processors reduced to:  10 ShMem   1 Linda.
     ILin= 3 X=4.695D-01 Y=-3.009769571197D+03 DE=-4.12D-03
     An  expanding polynomial of degree  3 produced  0.2370
 FoFJK:  IHMeth= 1 ICntrl=     0 DoSepK=T KAlg= 1 I1Cent= 0 FoldK=F
 CoulSu:  requested number of processors reduced to:  10 ShMem   1 Linda.
 CoulSu:  requested number of processors reduced to:  10 ShMem   1 Linda.
 CoulSu:  requested number of processors reduced to:  10 ShMem   1 Linda.
 Iteration   6 EE= -3009.87675142734     Delta-E=       -0.111304005068 Grad=2.504D-01
 Gradient too large for Newton-Raphson -- use scaled steepest descent instead.
     ILin= 1 X=0.000D+00 Y=-3.009876751427D+03 DE= 0.00D+00
 FoFJK:  IHMeth= 1 ICntrl=     0 DoSepK=T KAlg= 1 I1Cent= 0 FoldK=F
 CoulSu:  requested number of processors reduced to:  10 ShMem   1 Linda.
 CoulSu:  requested number of processors reduced to:  10 ShMem   1 Linda.
 CoulSu:  requested number of processors reduced to:  10 ShMem   1 Linda.
     ILin= 2 X=3.320D-01 Y=-3.009949151625D+03 DE=-7.24D-02
 FoFJK:  IHMeth= 1 ICntrl=     0 DoSepK=T KAlg= 1 I1Cent= 0 FoldK=F
 CoulSu:  requested number of processors reduced to:  10 ShMem   1 Linda.
 CoulSu:  requested number of processors reduced to:  10 ShMem   1 Linda.
 CoulSu:  requested number of processors reduced to:  10 ShMem   1 Linda.
     ILin= 3 X=4.695D-01 Y=-3.009957739119D+03 DE=-8.10D-02
 FoFJK:  IHMeth= 1 ICntrl=     0 DoSepK=T KAlg= 1 I1Cent= 0 FoldK=F
 CoulSu:  requested number of processors reduced to:  10 ShMem   1 Linda.
 CoulSu:  requested number of processors reduced to:  10 ShMem   1 Linda.
 CoulSu:  requested number of processors reduced to:  10 ShMem   1 Linda.
     ILin= 4 X=6.640D-01 Y=-3.009951104313D+03 DE=-7.44D-02
     An  expanding polynomial of degree  4 produced  0.5053
 FoFJK:  IHMeth= 1 ICntrl=     0 DoSepK=T KAlg= 1 I1Cent= 0 FoldK=F
 CoulSu:  requested number of processors reduced to:  10 ShMem   1 Linda.
 CoulSu:  requested number of processors reduced to:  10 ShMem   1 Linda.
 CoulSu:  requested number of processors reduced to:  10 ShMem   1 Linda.
 Iteration   7 EE= -3009.95808026360     Delta-E=       -0.081328836264 Grad=4.230D-01
 Gradient too large for Newton-Raphson -- use scaled steepest descent instead.
     ILin= 1 X=0.000D+00 Y=-3.009958080264D+03 DE= 0.00D+00
 FoFJK:  IHMeth= 1 ICntrl=     0 DoSepK=T KAlg= 1 I1Cent= 0 FoldK=F
 CoulSu:  requested number of processors reduced to:  10 ShMem   1 Linda.
 CoulSu:  requested number of processors reduced to:  10 ShMem   1 Linda.
 CoulSu:  requested number of processors reduced to:  10 ShMem   1 Linda.
     ILin= 2 X=5.053D-01 Y=-3.009972162554D+03 DE=-1.41D-02
 FoFJK:  IHMeth= 1 ICntrl=     0 DoSepK=T KAlg= 1 I1Cent= 0 FoldK=F
 CoulSu:  requested number of processors reduced to:  10 ShMem   1 Linda.
 CoulSu:  requested number of processors reduced to:  10 ShMem   1 Linda.
 CoulSu:  requested number of processors reduced to:  10 ShMem   1 Linda.
     ILin= 3 X=7.146D-01 Y=-3.009867646453D+03 DE= 9.04D-02
     An  expanding polynomial of degree  3 produced  0.2715
 FoFJK:  IHMeth= 1 ICntrl=     0 DoSepK=T KAlg= 1 I1Cent= 0 FoldK=F
 CoulSu:  requested number of processors reduced to:  10 ShMem   1 Linda.
 CoulSu:  requested number of processors reduced to:  10 ShMem   1 Linda.
 CoulSu:  requested number of processors reduced to:  10 ShMem   1 Linda.
 Iteration   8 EE= -3010.01519492937     Delta-E=       -0.057114665771 Grad=1.601D-01
 Gradient too large for Newton-Raphson -- use scaled steepest descent instead.
     ILin= 1 X=0.000D+00 Y=-3.010015194929D+03 DE= 0.00D+00
 FoFJK:  IHMeth= 1 ICntrl=     0 DoSepK=T KAlg= 1 I1Cent= 0 FoldK=F
 CoulSu:  requested number of processors reduced to:  10 ShMem   1 Linda.
 CoulSu:  requested number of processors reduced to:  10 ShMem   1 Linda.
 CoulSu:  requested number of processors reduced to:  10 ShMem   1 Linda.
     ILin= 2 X=5.053D-01 Y=-3.010050512733D+03 DE=-3.53D-02
 FoFJK:  IHMeth= 1 ICntrl=     0 DoSepK=T KAlg= 1 I1Cent= 0 FoldK=F
 CoulSu:  requested number of processors reduced to:  10 ShMem   1 Linda.
 CoulSu:  requested number of processors reduced to:  10 ShMem   1 Linda.
 CoulSu:  requested number of processors reduced to:  10 ShMem   1 Linda.
     ILin= 3 X=7.146D-01 Y=-3.010053711697D+03 DE=-3.85D-02
 FoFJK:  IHMeth= 1 ICntrl=     0 DoSepK=T KAlg= 1 I1Cent= 0 FoldK=F
 CoulSu:  requested number of processors reduced to:  10 ShMem   1 Linda.
 CoulSu:  requested number of processors reduced to:  10 ShMem   1 Linda.
 CoulSu:  requested number of processors reduced to:  10 ShMem   1 Linda.
     ILin= 4 X=1.011D+00 Y=-3.010048912134D+03 DE=-3.37D-02
     An  expanding polynomial of degree  4 produced  0.7254
 FoFJK:  IHMeth= 1 ICntrl=     0 DoSepK=T KAlg= 1 I1Cent= 0 FoldK=F
 CoulSu:  requested number of processors reduced to:  10 ShMem   1 Linda.
 CoulSu:  requested number of processors reduced to:  10 ShMem   1 Linda.
 CoulSu:  requested number of processors reduced to:  10 ShMem   1 Linda.
 Iteration   9 EE= -3010.05371818293     Delta-E=       -0.038523253562 Grad=2.644D-01
 Gradient too large for Newton-Raphson -- use scaled steepest descent instead.
     ILin= 1 X=0.000D+00 Y=-3.010053718183D+03 DE= 0.00D+00
 FoFJK:  IHMeth= 1 ICntrl=     0 DoSepK=T KAlg= 1 I1Cent= 0 FoldK=F
 CoulSu:  requested number of processors reduced to:  10 ShMem   1 Linda.
 CoulSu:  requested number of processors reduced to:  10 ShMem   1 Linda.
 CoulSu:  requested number of processors reduced to:  10 ShMem   1 Linda.
     ILin= 2 X=7.254D-01 Y=-3.010031347192D+03 DE= 2.24D-02
 FoFJK:  IHMeth= 1 ICntrl=     0 DoSepK=T KAlg= 1 I1Cent= 0 FoldK=F
 CoulSu:  requested number of processors reduced to:  10 ShMem   1 Linda.
 CoulSu:  requested number of processors reduced to:  10 ShMem   1 Linda.
 CoulSu:  requested number of processors reduced to:  10 ShMem   1 Linda.
     ILin= 3 X=5.130D-01 Y=-3.010066721397D+03 DE=-1.30D-02
     A contracting polynomial of degree  3 produced  0.3044
 FoFJK:  IHMeth= 1 ICntrl=     0 DoSepK=T KAlg= 1 I1Cent= 0 FoldK=F
 CoulSu:  requested number of processors reduced to:  10 ShMem   1 Linda.
 CoulSu:  requested number of processors reduced to:  10 ShMem   1 Linda.
 CoulSu:  requested number of processors reduced to:  10 ShMem   1 Linda.
 Iteration  10 EE= -3010.07892524019     Delta-E=       -0.025207057258 Grad=9.136D-02
 Gradient too large for Newton-Raphson -- use scaled steepest descent instead.
     ILin= 1 X=0.000D+00 Y=-3.010078925240D+03 DE= 0.00D+00
 FoFJK:  IHMeth= 1 ICntrl=     0 DoSepK=T KAlg= 1 I1Cent= 0 FoldK=F
 CoulSu:  requested number of processors reduced to:  10 ShMem   1 Linda.
 CoulSu:  requested number of processors reduced to:  10 ShMem   1 Linda.
 CoulSu:  requested number of processors reduced to:  10 ShMem   1 Linda.
     ILin= 2 X=3.044D-01 Y=-3.010087387721D+03 DE=-8.46D-03
 FoFJK:  IHMeth= 1 ICntrl=     0 DoSepK=T KAlg= 1 I1Cent= 0 FoldK=F
 CoulSu:  requested number of processors reduced to:  10 ShMem   1 Linda.
 CoulSu:  requested number of processors reduced to:  10 ShMem   1 Linda.
 CoulSu:  requested number of processors reduced to:  10 ShMem   1 Linda.
     ILin= 3 X=4.305D-01 Y=-3.010089803217D+03 DE=-1.09D-02
 FoFJK:  IHMeth= 1 ICntrl=     0 DoSepK=T KAlg= 1 I1Cent= 0 FoldK=F
 CoulSu:  requested number of processors reduced to:  10 ShMem   1 Linda.
 CoulSu:  requested number of processors reduced to:  10 ShMem   1 Linda.
 CoulSu:  requested number of processors reduced to:  10 ShMem   1 Linda.
     ILin= 4 X=6.088D-01 Y=-3.010092194242D+03 DE=-1.33D-02
 FoFJK:  IHMeth= 1 ICntrl=     0 DoSepK=T KAlg= 1 I1Cent= 0 FoldK=F
 CoulSu:  requested number of processors reduced to:  10 ShMem   1 Linda.
 CoulSu:  requested number of processors reduced to:  10 ShMem   1 Linda.
 CoulSu:  requested number of processors reduced to:  10 ShMem   1 Linda.
     ILin= 5 X=8.610D-01 Y=-3.010093649971D+03 DE=-1.47D-02
 FoFJK:  IHMeth= 1 ICntrl=     0 DoSepK=T KAlg= 1 I1Cent= 0 FoldK=F
 CoulSu:  requested number of processors reduced to:  10 ShMem   1 Linda.
 CoulSu:  requested number of processors reduced to:  10 ShMem   1 Linda.
 CoulSu:  requested number of processors reduced to:  10 ShMem   1 Linda.
     ILin= 6 X=1.218D+00 Y=-3.010092220350D+03 DE=-1.33D-02
     An  expanding polynomial of degree  6 produced  0.9083
 FoFJK:  IHMeth= 1 ICntrl=     0 DoSepK=T KAlg= 1 I1Cent= 0 FoldK=F
 CoulSu:  requested number of processors reduced to:  10 ShMem   1 Linda.
 CoulSu:  requested number of processors reduced to:  10 ShMem   1 Linda.
 CoulSu:  requested number of processors reduced to:  10 ShMem   1 Linda.
 Iteration  11 EE= -3010.09368601317     Delta-E=       -0.014760772978 Grad=1.529D-01
 Gradient too large for Newton-Raphson -- use scaled steepest descent instead.
     ILin= 1 X=0.000D+00 Y=-3.010093686013D+03 DE= 0.00D+00
 FoFJK:  IHMeth= 1 ICntrl=     0 DoSepK=T KAlg= 1 I1Cent= 0 FoldK=F
 CoulSu:  requested number of processors reduced to:  10 ShMem   1 Linda.
 CoulSu:  requested number of processors reduced to:  10 ShMem   1 Linda.
 CoulSu:  requested number of processors reduced to:  10 ShMem   1 Linda.
     ILin= 2 X=9.083D-01 Y=-3.010075415169D+03 DE= 1.83D-02
 FoFJK:  IHMeth= 1 ICntrl=     0 DoSepK=T KAlg= 1 I1Cent= 0 FoldK=F
 CoulSu:  requested number of processors reduced to:  10 ShMem   1 Linda.
 CoulSu:  requested number of processors reduced to:  10 ShMem   1 Linda.
 CoulSu:  requested number of processors reduced to:  10 ShMem   1 Linda.
     ILin= 3 X=6.423D-01 Y=-3.010094591639D+03 DE=-9.06D-04
     A contracting polynomial of degree  3 produced  0.3299
 FoFJK:  IHMeth= 1 ICntrl=     0 DoSepK=T KAlg= 1 I1Cent= 0 FoldK=F
 CoulSu:  requested number of processors reduced to:  10 ShMem   1 Linda.
 CoulSu:  requested number of processors reduced to:  10 ShMem   1 Linda.
 CoulSu:  requested number of processors reduced to:  10 ShMem   1 Linda.
 Iteration  12 EE= -3010.10280054233     Delta-E=       -0.009114529156 Grad=5.088D-02
 Gradient too large for Newton-Raphson -- use scaled steepest descent instead.
     ILin= 1 X=0.000D+00 Y=-3.010102800542D+03 DE= 0.00D+00
 FoFJK:  IHMeth= 1 ICntrl=     0 DoSepK=T KAlg= 1 I1Cent= 0 FoldK=F
 CoulSu:  requested number of processors reduced to:  10 ShMem   1 Linda.
 CoulSu:  requested number of processors reduced to:  10 ShMem   1 Linda.
 CoulSu:  requested number of processors reduced to:  10 ShMem   1 Linda.
     ILin= 2 X=3.299D-01 Y=-3.010105774698D+03 DE=-2.97D-03
 FoFJK:  IHMeth= 1 ICntrl=     0 DoSepK=T KAlg= 1 I1Cent= 0 FoldK=F
 CoulSu:  requested number of processors reduced to:  10 ShMem   1 Linda.
 CoulSu:  requested number of processors reduced to:  10 ShMem   1 Linda.
 CoulSu:  requested number of processors reduced to:  10 ShMem   1 Linda.
     ILin= 3 X=4.665D-01 Y=-3.010106673143D+03 DE=-3.87D-03
 FoFJK:  IHMeth= 1 ICntrl=     0 DoSepK=T KAlg= 1 I1Cent= 0 FoldK=F
 CoulSu:  requested number of processors reduced to:  10 ShMem   1 Linda.
 CoulSu:  requested number of processors reduced to:  10 ShMem   1 Linda.
 CoulSu:  requested number of processors reduced to:  10 ShMem   1 Linda.
     ILin= 4 X=6.597D-01 Y=-3.010107621314D+03 DE=-4.82D-03
 FoFJK:  IHMeth= 1 ICntrl=     0 DoSepK=T KAlg= 1 I1Cent= 0 FoldK=F
 CoulSu:  requested number of processors reduced to:  10 ShMem   1 Linda.
 CoulSu:  requested number of processors reduced to:  10 ShMem   1 Linda.
 CoulSu:  requested number of processors reduced to:  10 ShMem   1 Linda.
     ILin= 5 X=9.330D-01 Y=-3.010108338344D+03 DE=-5.54D-03
 FoFJK:  IHMeth= 1 ICntrl=     0 DoSepK=T KAlg= 1 I1Cent= 0 FoldK=F
 CoulSu:  requested number of processors reduced to:  10 ShMem   1 Linda.
 CoulSu:  requested number of processors reduced to:  10 ShMem   1 Linda.
 CoulSu:  requested number of processors reduced to:  10 ShMem   1 Linda.
     ILin= 6 X=1.319D+00 Y=-3.010108165655D+03 DE=-5.37D-03
     An  expanding polynomial of degree  6 produced  1.0759
 FoFJK:  IHMeth= 1 ICntrl=     0 DoSepK=T KAlg= 1 I1Cent= 0 FoldK=F
 CoulSu:  requested number of processors reduced to:  10 ShMem   1 Linda.
 CoulSu:  requested number of processors reduced to:  10 ShMem   1 Linda.
 CoulSu:  requested number of processors reduced to:  10 ShMem   1 Linda.
 Iteration  13 EE= -3010.10843235835     Delta-E=       -0.005631816020 Grad=9.591D-02
 Gradient too large for Newton-Raphson -- use scaled steepest descent instead.
     ILin= 1 X=0.000D+00 Y=-3.010108432358D+03 DE= 0.00D+00
 FoFJK:  IHMeth= 1 ICntrl=     0 DoSepK=T KAlg= 1 I1Cent= 0 FoldK=F
 CoulSu:  requested number of processors reduced to:  10 ShMem   1 Linda.
 CoulSu:  requested number of processors reduced to:  10 ShMem   1 Linda.
 CoulSu:  requested number of processors reduced to:  10 ShMem   1 Linda.
     ILin= 2 X=1.076D+00 Y=-3.010096262728D+03 DE= 1.22D-02
 FoFJK:  IHMeth= 1 ICntrl=     0 DoSepK=T KAlg= 1 I1Cent= 0 FoldK=F
 CoulSu:  requested number of processors reduced to:  10 ShMem   1 Linda.
 CoulSu:  requested number of processors reduced to:  10 ShMem   1 Linda.
 CoulSu:  requested number of processors reduced to:  10 ShMem   1 Linda.
     ILin= 3 X=7.607D-01 Y=-3.010107091600D+03 DE= 1.34D-03
 FoFJK:  IHMeth= 1 ICntrl=     0 DoSepK=T KAlg= 1 I1Cent= 0 FoldK=F
 CoulSu:  requested number of processors reduced to:  10 ShMem   1 Linda.
 CoulSu:  requested number of processors reduced to:  10 ShMem   1 Linda.
 CoulSu:  requested number of processors reduced to:  10 ShMem   1 Linda.
     ILin= 4 X=5.379D-01 Y=-3.010111194101D+03 DE=-2.76D-03
     A contracting polynomial of degree  4 produced  0.3493
 FoFJK:  IHMeth= 1 ICntrl=     0 DoSepK=T KAlg= 1 I1Cent= 0 FoldK=F
 CoulSu:  requested number of processors reduced to:  10 ShMem   1 Linda.
 CoulSu:  requested number of processors reduced to:  10 ShMem   1 Linda.
 CoulSu:  requested number of processors reduced to:  10 ShMem   1 Linda.
 Iteration  14 EE= -3010.11229585415     Delta-E=       -0.003863495809 Grad=3.397D-02
 Gradient too large for Newton-Raphson -- use scaled steepest descent instead.
     ILin= 1 X=0.000D+00 Y=-3.010112295854D+03 DE= 0.00D+00
 FoFJK:  IHMeth= 1 ICntrl=     0 DoSepK=T KAlg= 1 I1Cent= 0 FoldK=F
 CoulSu:  requested number of processors reduced to:  10 ShMem   1 Linda.
 CoulSu:  requested number of processors reduced to:  10 ShMem   1 Linda.
 CoulSu:  requested number of processors reduced to:  10 ShMem   1 Linda.
     ILin= 2 X=3.493D-01 Y=-3.010113767817D+03 DE=-1.47D-03
 FoFJK:  IHMeth= 1 ICntrl=     0 DoSepK=T KAlg= 1 I1Cent= 0 FoldK=F
 CoulSu:  requested number of processors reduced to:  10 ShMem   1 Linda.
 CoulSu:  requested number of processors reduced to:  10 ShMem   1 Linda.
 CoulSu:  requested number of processors reduced to:  10 ShMem   1 Linda.
     ILin= 3 X=4.940D-01 Y=-3.010114234924D+03 DE=-1.94D-03
 FoFJK:  IHMeth= 1 ICntrl=     0 DoSepK=T KAlg= 1 I1Cent= 0 FoldK=F
 CoulSu:  requested number of processors reduced to:  10 ShMem   1 Linda.
 CoulSu:  requested number of processors reduced to:  10 ShMem   1 Linda.
 CoulSu:  requested number of processors reduced to:  10 ShMem   1 Linda.
     ILin= 4 X=6.987D-01 Y=-3.010114754760D+03 DE=-2.46D-03
 FoFJK:  IHMeth= 1 ICntrl=     0 DoSepK=T KAlg= 1 I1Cent= 0 FoldK=F
 CoulSu:  requested number of processors reduced to:  10 ShMem   1 Linda.
 CoulSu:  requested number of processors reduced to:  10 ShMem   1 Linda.
 CoulSu:  requested number of processors reduced to:  10 ShMem   1 Linda.
     ILin= 5 X=9.881D-01 Y=-3.010115212005D+03 DE=-2.92D-03
 FoFJK:  IHMeth= 1 ICntrl=     0 DoSepK=T KAlg= 1 I1Cent= 0 FoldK=F
 CoulSu:  requested number of processors reduced to:  10 ShMem   1 Linda.
 CoulSu:  requested number of processors reduced to:  10 ShMem   1 Linda.
 CoulSu:  requested number of processors reduced to:  10 ShMem   1 Linda.
     ILin= 6 X=1.397D+00 Y=-3.010115313635D+03 DE=-3.02D-03
 FoFJK:  IHMeth= 1 ICntrl=     0 DoSepK=T KAlg= 1 I1Cent= 0 FoldK=F
 CoulSu:  requested number of processors reduced to:  10 ShMem   1 Linda.
 CoulSu:  requested number of processors reduced to:  10 ShMem   1 Linda.
 CoulSu:  requested number of processors reduced to:  10 ShMem   1 Linda.
     ILin= 7 X=1.976D+00 Y=-3.010114400343D+03 DE=-2.10D-03
     An  expanding polynomial of degree  7 produced  1.2582
 FoFJK:  IHMeth= 1 ICntrl=     0 DoSepK=T KAlg= 1 I1Cent= 0 FoldK=F
 CoulSu:  requested number of processors reduced to:  10 ShMem   1 Linda.
 CoulSu:  requested number of processors reduced to:  10 ShMem   1 Linda.
 CoulSu:  requested number of processors reduced to:  10 ShMem   1 Linda.
 Iteration  15 EE= -3010.11534980579     Delta-E=       -0.003053951632 Grad=7.620D-02
 Gradient too large for Newton-Raphson -- use scaled steepest descent instead.
     ILin= 1 X=0.000D+00 Y=-3.010115349806D+03 DE= 0.00D+00
 FoFJK:  IHMeth= 1 ICntrl=     0 DoSepK=T KAlg= 1 I1Cent= 0 FoldK=F
 CoulSu:  requested number of processors reduced to:  10 ShMem   1 Linda.
 CoulSu:  requested number of processors reduced to:  10 ShMem   1 Linda.
 CoulSu:  requested number of processors reduced to:  10 ShMem   1 Linda.
     ILin= 2 X=1.258D+00 Y=-3.010102868721D+03 DE= 1.25D-02
 FoFJK:  IHMeth= 1 ICntrl=     0 DoSepK=T KAlg= 1 I1Cent= 0 FoldK=F
 CoulSu:  requested number of processors reduced to:  10 ShMem   1 Linda.
 CoulSu:  requested number of processors reduced to:  10 ShMem   1 Linda.
 CoulSu:  requested number of processors reduced to:  10 ShMem   1 Linda.
     ILin= 3 X=8.897D-01 Y=-3.010112590408D+03 DE= 2.76D-03
 FoFJK:  IHMeth= 1 ICntrl=     0 DoSepK=T KAlg= 1 I1Cent= 0 FoldK=F
 CoulSu:  requested number of processors reduced to:  10 ShMem   1 Linda.
 CoulSu:  requested number of processors reduced to:  10 ShMem   1 Linda.
 CoulSu:  requested number of processors reduced to:  10 ShMem   1 Linda.
     ILin= 4 X=6.291D-01 Y=-3.010116485175D+03 DE=-1.14D-03
     A contracting polynomial of degree  4 produced  0.3605
 FoFJK:  IHMeth= 1 ICntrl=     0 DoSepK=T KAlg= 1 I1Cent= 0 FoldK=F
 CoulSu:  requested number of processors reduced to:  10 ShMem   1 Linda.
 CoulSu:  requested number of processors reduced to:  10 ShMem   1 Linda.
 CoulSu:  requested number of processors reduced to:  10 ShMem   1 Linda.
 Iteration  16 EE= -3010.11784857926     Delta-E=       -0.002498773478 Grad=2.796D-02
 Gradient too large for Newton-Raphson -- use scaled steepest descent instead.
     ILin= 1 X=0.000D+00 Y=-3.010117848579D+03 DE= 0.00D+00
 FoFJK:  IHMeth= 1 ICntrl=     0 DoSepK=T KAlg= 1 I1Cent= 0 FoldK=F
 CoulSu:  requested number of processors reduced to:  10 ShMem   1 Linda.
 CoulSu:  requested number of processors reduced to:  10 ShMem   1 Linda.
 CoulSu:  requested number of processors reduced to:  10 ShMem   1 Linda.
     ILin= 2 X=3.605D-01 Y=-3.010118865701D+03 DE=-1.02D-03
 FoFJK:  IHMeth= 1 ICntrl=     0 DoSepK=T KAlg= 1 I1Cent= 0 FoldK=F
 CoulSu:  requested number of processors reduced to:  10 ShMem   1 Linda.
 CoulSu:  requested number of processors reduced to:  10 ShMem   1 Linda.
 CoulSu:  requested number of processors reduced to:  10 ShMem   1 Linda.
     ILin= 3 X=5.098D-01 Y=-3.010119193042D+03 DE=-1.34D-03
 FoFJK:  IHMeth= 1 ICntrl=     0 DoSepK=T KAlg= 1 I1Cent= 0 FoldK=F
 CoulSu:  requested number of processors reduced to:  10 ShMem   1 Linda.
 CoulSu:  requested number of processors reduced to:  10 ShMem   1 Linda.
 CoulSu:  requested number of processors reduced to:  10 ShMem   1 Linda.
     ILin= 4 X=7.210D-01 Y=-3.010119562301D+03 DE=-1.71D-03
 FoFJK:  IHMeth= 1 ICntrl=     0 DoSepK=T KAlg= 1 I1Cent= 0 FoldK=F
 CoulSu:  requested number of processors reduced to:  10 ShMem   1 Linda.
 CoulSu:  requested number of processors reduced to:  10 ShMem   1 Linda.
 CoulSu:  requested number of processors reduced to:  10 ShMem   1 Linda.
     ILin= 5 X=1.020D+00 Y=-3.010119897818D+03 DE=-2.05D-03
 FoFJK:  IHMeth= 1 ICntrl=     0 DoSepK=T KAlg= 1 I1Cent= 0 FoldK=F
 CoulSu:  requested number of processors reduced to:  10 ShMem   1 Linda.
 CoulSu:  requested number of processors reduced to:  10 ShMem   1 Linda.
 CoulSu:  requested number of processors reduced to:  10 ShMem   1 Linda.
     ILin= 6 X=1.442D+00 Y=-3.010120001065D+03 DE=-2.15D-03
 FoFJK:  IHMeth= 1 ICntrl=     0 DoSepK=T KAlg= 1 I1Cent= 0 FoldK=F
 CoulSu:  requested number of processors reduced to:  10 ShMem   1 Linda.
 CoulSu:  requested number of processors reduced to:  10 ShMem   1 Linda.
 CoulSu:  requested number of processors reduced to:  10 ShMem   1 Linda.
     ILin= 7 X=2.039D+00 Y=-3.010119411886D+03 DE=-1.56D-03
     An  expanding polynomial of degree  7 produced  1.3313
 FoFJK:  IHMeth= 1 ICntrl=     0 DoSepK=T KAlg= 1 I1Cent= 0 FoldK=F
 CoulSu:  requested number of processors reduced to:  10 ShMem   1 Linda.
 CoulSu:  requested number of processors reduced to:  10 ShMem   1 Linda.
 CoulSu:  requested number of processors reduced to:  10 ShMem   1 Linda.
 Iteration  17 EE= -3010.12001588724     Delta-E=       -0.002167307981 Grad=6.654D-02
 Gradient too large for Newton-Raphson -- use scaled steepest descent instead.
     ILin= 1 X=0.000D+00 Y=-3.010120015887D+03 DE= 0.00D+00
 FoFJK:  IHMeth= 1 ICntrl=     0 DoSepK=T KAlg= 1 I1Cent= 0 FoldK=F
 CoulSu:  requested number of processors reduced to:  10 ShMem   1 Linda.
 CoulSu:  requested number of processors reduced to:  10 ShMem   1 Linda.
 CoulSu:  requested number of processors reduced to:  10 ShMem   1 Linda.
     ILin= 2 X=1.331D+00 Y=-3.010109044650D+03 DE= 1.10D-02
 FoFJK:  IHMeth= 1 ICntrl=     0 DoSepK=T KAlg= 1 I1Cent= 0 FoldK=F
 CoulSu:  requested number of processors reduced to:  10 ShMem   1 Linda.
 CoulSu:  requested number of processors reduced to:  10 ShMem   1 Linda.
 CoulSu:  requested number of processors reduced to:  10 ShMem   1 Linda.
     ILin= 3 X=9.414D-01 Y=-3.010117325948D+03 DE= 2.69D-03
 FoFJK:  IHMeth= 1 ICntrl=     0 DoSepK=T KAlg= 1 I1Cent= 0 FoldK=F
 CoulSu:  requested number of processors reduced to:  10 ShMem   1 Linda.
 CoulSu:  requested number of processors reduced to:  10 ShMem   1 Linda.
 CoulSu:  requested number of processors reduced to:  10 ShMem   1 Linda.
     ILin= 4 X=6.657D-01 Y=-3.010120685706D+03 DE=-6.70D-04
     A contracting polynomial of degree  4 produced  0.3671
 FoFJK:  IHMeth= 1 ICntrl=     0 DoSepK=T KAlg= 1 I1Cent= 0 FoldK=F
 CoulSu:  requested number of processors reduced to:  10 ShMem   1 Linda.
 CoulSu:  requested number of processors reduced to:  10 ShMem   1 Linda.
 CoulSu:  requested number of processors reduced to:  10 ShMem   1 Linda.
 Iteration  18 EE= -3010.12193948619     Delta-E=       -0.001923598948 Grad=2.489D-02
 Gradient too large for Newton-Raphson -- use scaled steepest descent instead.
     ILin= 1 X=0.000D+00 Y=-3.010121939486D+03 DE= 0.00D+00
 FoFJK:  IHMeth= 1 ICntrl=     0 DoSepK=T KAlg= 1 I1Cent= 0 FoldK=F
 CoulSu:  requested number of processors reduced to:  10 ShMem   1 Linda.
 CoulSu:  requested number of processors reduced to:  10 ShMem   1 Linda.
 CoulSu:  requested number of processors reduced to:  10 ShMem   1 Linda.
     ILin= 2 X=3.671D-01 Y=-3.010122749254D+03 DE=-8.10D-04
 FoFJK:  IHMeth= 1 ICntrl=     0 DoSepK=T KAlg= 1 I1Cent= 0 FoldK=F
 CoulSu:  requested number of processors reduced to:  10 ShMem   1 Linda.
 CoulSu:  requested number of processors reduced to:  10 ShMem   1 Linda.
 CoulSu:  requested number of processors reduced to:  10 ShMem   1 Linda.
     ILin= 3 X=5.191D-01 Y=-3.010123010575D+03 DE=-1.07D-03
 FoFJK:  IHMeth= 1 ICntrl=     0 DoSepK=T KAlg= 1 I1Cent= 0 FoldK=F
 CoulSu:  requested number of processors reduced to:  10 ShMem   1 Linda.
 CoulSu:  requested number of processors reduced to:  10 ShMem   1 Linda.
 CoulSu:  requested number of processors reduced to:  10 ShMem   1 Linda.
     ILin= 4 X=7.342D-01 Y=-3.010123306054D+03 DE=-1.37D-03
 FoFJK:  IHMeth= 1 ICntrl=     0 DoSepK=T KAlg= 1 I1Cent= 0 FoldK=F
 CoulSu:  requested number of processors reduced to:  10 ShMem   1 Linda.
 CoulSu:  requested number of processors reduced to:  10 ShMem   1 Linda.
 CoulSu:  requested number of processors reduced to:  10 ShMem   1 Linda.
     ILin= 5 X=1.038D+00 Y=-3.010123575836D+03 DE=-1.64D-03
 FoFJK:  IHMeth= 1 ICntrl=     0 DoSepK=T KAlg= 1 I1Cent= 0 FoldK=F
 CoulSu:  requested number of processors reduced to:  10 ShMem   1 Linda.
 CoulSu:  requested number of processors reduced to:  10 ShMem   1 Linda.
 CoulSu:  requested number of processors reduced to:  10 ShMem   1 Linda.
     ILin= 6 X=1.468D+00 Y=-3.010123661612D+03 DE=-1.72D-03
 FoFJK:  IHMeth= 1 ICntrl=     0 DoSepK=T KAlg= 1 I1Cent= 0 FoldK=F
 CoulSu:  requested number of processors reduced to:  10 ShMem   1 Linda.
 CoulSu:  requested number of processors reduced to:  10 ShMem   1 Linda.
 CoulSu:  requested number of processors reduced to:  10 ShMem   1 Linda.
     ILin= 7 X=2.077D+00 Y=-3.010123193327D+03 DE=-1.25D-03
     An  expanding polynomial of degree  7 produced  1.3599
 FoFJK:  IHMeth= 1 ICntrl=     0 DoSepK=T KAlg= 1 I1Cent= 0 FoldK=F
 CoulSu:  requested number of processors reduced to:  10 ShMem   1 Linda.
 CoulSu:  requested number of processors reduced to:  10 ShMem   1 Linda.
 CoulSu:  requested number of processors reduced to:  10 ShMem   1 Linda.
 Iteration  19 EE= -3010.12367261236     Delta-E=       -0.001733126165 Grad=6.040D-02
 Gradient too large for Newton-Raphson -- use scaled steepest descent instead.
     ILin= 1 X=0.000D+00 Y=-3.010123672612D+03 DE= 0.00D+00
 FoFJK:  IHMeth= 1 ICntrl=     0 DoSepK=T KAlg= 1 I1Cent= 0 FoldK=F
 CoulSu:  requested number of processors reduced to:  10 ShMem   1 Linda.
 CoulSu:  requested number of processors reduced to:  10 ShMem   1 Linda.
 CoulSu:  requested number of processors reduced to:  10 ShMem   1 Linda.
     ILin= 2 X=1.360D+00 Y=-3.010114339911D+03 DE= 9.33D-03
 FoFJK:  IHMeth= 1 ICntrl=     0 DoSepK=T KAlg= 1 I1Cent= 0 FoldK=F
 CoulSu:  requested number of processors reduced to:  10 ShMem   1 Linda.
 CoulSu:  requested number of processors reduced to:  10 ShMem   1 Linda.
 CoulSu:  requested number of processors reduced to:  10 ShMem   1 Linda.
     ILin= 3 X=9.616D-01 Y=-3.010121354795D+03 DE= 2.32D-03
 FoFJK:  IHMeth= 1 ICntrl=     0 DoSepK=T KAlg= 1 I1Cent= 0 FoldK=F
 CoulSu:  requested number of processors reduced to:  10 ShMem   1 Linda.
 CoulSu:  requested number of processors reduced to:  10 ShMem   1 Linda.
 CoulSu:  requested number of processors reduced to:  10 ShMem   1 Linda.
     ILin= 4 X=6.799D-01 Y=-3.010124202812D+03 DE=-5.30D-04
     A contracting polynomial of degree  4 produced  0.3729
 FoFJK:  IHMeth= 1 ICntrl=     0 DoSepK=T KAlg= 1 I1Cent= 0 FoldK=F
 CoulSu:  requested number of processors reduced to:  10 ShMem   1 Linda.
 CoulSu:  requested number of processors reduced to:  10 ShMem   1 Linda.
 CoulSu:  requested number of processors reduced to:  10 ShMem   1 Linda.
 Iteration  20 EE= -3010.12527420250     Delta-E=       -0.001601590146 Grad=2.312D-02
 Gradient too large for Newton-Raphson -- use scaled steepest descent instead.
     ILin= 1 X=0.000D+00 Y=-3.010125274203D+03 DE= 0.00D+00
 FoFJK:  IHMeth= 1 ICntrl=     0 DoSepK=T KAlg= 1 I1Cent= 0 FoldK=F
 CoulSu:  requested number of processors reduced to:  10 ShMem   1 Linda.
 CoulSu:  requested number of processors reduced to:  10 ShMem   1 Linda.
 CoulSu:  requested number of processors reduced to:  10 ShMem   1 Linda.
     ILin= 2 X=3.729D-01 Y=-3.010125978474D+03 DE=-7.04D-04
 FoFJK:  IHMeth= 1 ICntrl=     0 DoSepK=T KAlg= 1 I1Cent= 0 FoldK=F
 CoulSu:  requested number of processors reduced to:  10 ShMem   1 Linda.
 CoulSu:  requested number of processors reduced to:  10 ShMem   1 Linda.
 CoulSu:  requested number of processors reduced to:  10 ShMem   1 Linda.
     ILin= 3 X=5.274D-01 Y=-3.010126205755D+03 DE=-9.32D-04
 FoFJK:  IHMeth= 1 ICntrl=     0 DoSepK=T KAlg= 1 I1Cent= 0 FoldK=F
 CoulSu:  requested number of processors reduced to:  10 ShMem   1 Linda.
 CoulSu:  requested number of processors reduced to:  10 ShMem   1 Linda.
 CoulSu:  requested number of processors reduced to:  10 ShMem   1 Linda.
     ILin= 4 X=7.458D-01 Y=-3.010126462647D+03 DE=-1.19D-03
 FoFJK:  IHMeth= 1 ICntrl=     0 DoSepK=T KAlg= 1 I1Cent= 0 FoldK=F
 CoulSu:  requested number of processors reduced to:  10 ShMem   1 Linda.
 CoulSu:  requested number of processors reduced to:  10 ShMem   1 Linda.
 CoulSu:  requested number of processors reduced to:  10 ShMem   1 Linda.
     ILin= 5 X=1.055D+00 Y=-3.010126696746D+03 DE=-1.42D-03
 FoFJK:  IHMeth= 1 ICntrl=     0 DoSepK=T KAlg= 1 I1Cent= 0 FoldK=F
 CoulSu:  requested number of processors reduced to:  10 ShMem   1 Linda.
 CoulSu:  requested number of processors reduced to:  10 ShMem   1 Linda.
 CoulSu:  requested number of processors reduced to:  10 ShMem   1 Linda.
     ILin= 6 X=1.492D+00 Y=-3.010126769161D+03 DE=-1.49D-03
 FoFJK:  IHMeth= 1 ICntrl=     0 DoSepK=T KAlg= 1 I1Cent= 0 FoldK=F
 CoulSu:  requested number of processors reduced to:  10 ShMem   1 Linda.
 CoulSu:  requested number of processors reduced to:  10 ShMem   1 Linda.
 CoulSu:  requested number of processors reduced to:  10 ShMem   1 Linda.
     ILin= 7 X=2.110D+00 Y=-3.010126354059D+03 DE=-1.08D-03
     An  expanding polynomial of degree  7 produced  1.3776
 FoFJK:  IHMeth= 1 ICntrl=     0 DoSepK=T KAlg= 1 I1Cent= 0 FoldK=F
 CoulSu:  requested number of processors reduced to:  10 ShMem   1 Linda.
 CoulSu:  requested number of processors reduced to:  10 ShMem   1 Linda.
 CoulSu:  requested number of processors reduced to:  10 ShMem   1 Linda.
 Iteration  21 EE= -3010.12677949590     Delta-E=       -0.001505293391 Grad=5.712D-02
 Gradient too large for Newton-Raphson -- use scaled steepest descent instead.
     ILin= 1 X=0.000D+00 Y=-3.010126779496D+03 DE= 0.00D+00
 FoFJK:  IHMeth= 1 ICntrl=     0 DoSepK=T KAlg= 1 I1Cent= 0 FoldK=F
 CoulSu:  requested number of processors reduced to:  10 ShMem   1 Linda.
 CoulSu:  requested number of processors reduced to:  10 ShMem   1 Linda.
 CoulSu:  requested number of processors reduced to:  10 ShMem   1 Linda.
     ILin= 2 X=1.378D+00 Y=-3.010118366812D+03 DE= 8.41D-03
 FoFJK:  IHMeth= 1 ICntrl=     0 DoSepK=T KAlg= 1 I1Cent= 0 FoldK=F
 CoulSu:  requested number of processors reduced to:  10 ShMem   1 Linda.
 CoulSu:  requested number of processors reduced to:  10 ShMem   1 Linda.
 CoulSu:  requested number of processors reduced to:  10 ShMem   1 Linda.
     ILin= 3 X=9.741D-01 Y=-3.010124699428D+03 DE= 2.08D-03
 FoFJK:  IHMeth= 1 ICntrl=     0 DoSepK=T KAlg= 1 I1Cent= 0 FoldK=F
 CoulSu:  requested number of processors reduced to:  10 ShMem   1 Linda.
 CoulSu:  requested number of processors reduced to:  10 ShMem   1 Linda.
 CoulSu:  requested number of processors reduced to:  10 ShMem   1 Linda.
     ILin= 4 X=6.888D-01 Y=-3.010127266950D+03 DE=-4.87D-04
     A contracting polynomial of degree  4 produced  0.3785
 FoFJK:  IHMeth= 1 ICntrl=     0 DoSepK=T KAlg= 1 I1Cent= 0 FoldK=F
 CoulSu:  requested number of processors reduced to:  10 ShMem   1 Linda.
 CoulSu:  requested number of processors reduced to:  10 ShMem   1 Linda.
 CoulSu:  requested number of processors reduced to:  10 ShMem   1 Linda.
 Iteration  22 EE= -3010.12822943164     Delta-E=       -0.001449935748 Grad=2.242D-02
 Gradient too large for Newton-Raphson -- use scaled steepest descent instead.
     ILin= 1 X=0.000D+00 Y=-3.010128229432D+03 DE= 0.00D+00
 FoFJK:  IHMeth= 1 ICntrl=     0 DoSepK=T KAlg= 1 I1Cent= 0 FoldK=F
 CoulSu:  requested number of processors reduced to:  10 ShMem   1 Linda.
 CoulSu:  requested number of processors reduced to:  10 ShMem   1 Linda.
 CoulSu:  requested number of processors reduced to:  10 ShMem   1 Linda.
     ILin= 2 X=3.785D-01 Y=-3.010128896787D+03 DE=-6.67D-04
 FoFJK:  IHMeth= 1 ICntrl=     0 DoSepK=T KAlg= 1 I1Cent= 0 FoldK=F
 CoulSu:  requested number of processors reduced to:  10 ShMem   1 Linda.
 CoulSu:  requested number of processors reduced to:  10 ShMem   1 Linda.
 CoulSu:  requested number of processors reduced to:  10 ShMem   1 Linda.
     ILin= 3 X=5.353D-01 Y=-3.010129111378D+03 DE=-8.82D-04
 FoFJK:  IHMeth= 1 ICntrl=     0 DoSepK=T KAlg= 1 I1Cent= 0 FoldK=F
 CoulSu:  requested number of processors reduced to:  10 ShMem   1 Linda.
 CoulSu:  requested number of processors reduced to:  10 ShMem   1 Linda.
 CoulSu:  requested number of processors reduced to:  10 ShMem   1 Linda.
     ILin= 4 X=7.570D-01 Y=-3.010129352815D+03 DE=-1.12D-03
 FoFJK:  IHMeth= 1 ICntrl=     0 DoSepK=T KAlg= 1 I1Cent= 0 FoldK=F
 CoulSu:  requested number of processors reduced to:  10 ShMem   1 Linda.
 CoulSu:  requested number of processors reduced to:  10 ShMem   1 Linda.
 CoulSu:  requested number of processors reduced to:  10 ShMem   1 Linda.
     ILin= 5 X=1.071D+00 Y=-3.010129569839D+03 DE=-1.34D-03
 FoFJK:  IHMeth= 1 ICntrl=     0 DoSepK=T KAlg= 1 I1Cent= 0 FoldK=F
 CoulSu:  requested number of processors reduced to:  10 ShMem   1 Linda.
 CoulSu:  requested number of processors reduced to:  10 ShMem   1 Linda.
 CoulSu:  requested number of processors reduced to:  10 ShMem   1 Linda.
     ILin= 6 X=1.514D+00 Y=-3.010129627060D+03 DE=-1.40D-03
 FoFJK:  IHMeth= 1 ICntrl=     0 DoSepK=T KAlg= 1 I1Cent= 0 FoldK=F
 CoulSu:  requested number of processors reduced to:  10 ShMem   1 Linda.
 CoulSu:  requested number of processors reduced to:  10 ShMem   1 Linda.
 CoulSu:  requested number of processors reduced to:  10 ShMem   1 Linda.
     ILin= 7 X=2.141D+00 Y=-3.010129206574D+03 DE=-9.77D-04
     An  expanding polynomial of degree  7 produced  1.3789
 FoFJK:  IHMeth= 1 ICntrl=     0 DoSepK=T KAlg= 1 I1Cent= 0 FoldK=F
 CoulSu:  requested number of processors reduced to:  10 ShMem   1 Linda.
 CoulSu:  requested number of processors reduced to:  10 ShMem   1 Linda.
 CoulSu:  requested number of processors reduced to:  10 ShMem   1 Linda.
 Iteration  23 EE= -3010.12964067468     Delta-E=       -0.001411243037 Grad=5.582D-02
 Gradient too large for Newton-Raphson -- use scaled steepest descent instead.
     ILin= 1 X=0.000D+00 Y=-3.010129640675D+03 DE= 0.00D+00
 FoFJK:  IHMeth= 1 ICntrl=     0 DoSepK=T KAlg= 1 I1Cent= 0 FoldK=F
 CoulSu:  requested number of processors reduced to:  10 ShMem   1 Linda.
 CoulSu:  requested number of processors reduced to:  10 ShMem   1 Linda.
 CoulSu:  requested number of processors reduced to:  10 ShMem   1 Linda.
     ILin= 2 X=1.379D+00 Y=-3.010121819796D+03 DE= 7.82D-03
 FoFJK:  IHMeth= 1 ICntrl=     0 DoSepK=T KAlg= 1 I1Cent= 0 FoldK=F
 CoulSu:  requested number of processors reduced to:  10 ShMem   1 Linda.
 CoulSu:  requested number of processors reduced to:  10 ShMem   1 Linda.
 CoulSu:  requested number of processors reduced to:  10 ShMem   1 Linda.
     ILin= 3 X=9.750D-01 Y=-3.010127760322D+03 DE= 1.88D-03
 FoFJK:  IHMeth= 1 ICntrl=     0 DoSepK=T KAlg= 1 I1Cent= 0 FoldK=F
 CoulSu:  requested number of processors reduced to:  10 ShMem   1 Linda.
 CoulSu:  requested number of processors reduced to:  10 ShMem   1 Linda.
 CoulSu:  requested number of processors reduced to:  10 ShMem   1 Linda.
     ILin= 4 X=6.894D-01 Y=-3.010130157666D+03 DE=-5.17D-04
     A contracting polynomial of degree  4 produced  0.3833
 FoFJK:  IHMeth= 1 ICntrl=     0 DoSepK=T KAlg= 1 I1Cent= 0 FoldK=F
 CoulSu:  requested number of processors reduced to:  10 ShMem   1 Linda.
 CoulSu:  requested number of processors reduced to:  10 ShMem   1 Linda.
 CoulSu:  requested number of processors reduced to:  10 ShMem   1 Linda.
 Iteration  24 EE= -3010.13103917813     Delta-E=       -0.001398503454 Grad=2.235D-02
 Gradient too large for Newton-Raphson -- use scaled steepest descent instead.
     ILin= 1 X=0.000D+00 Y=-3.010131039178D+03 DE= 0.00D+00
 FoFJK:  IHMeth= 1 ICntrl=     0 DoSepK=T KAlg= 1 I1Cent= 0 FoldK=F
 CoulSu:  requested number of processors reduced to:  10 ShMem   1 Linda.
 CoulSu:  requested number of processors reduced to:  10 ShMem   1 Linda.
 CoulSu:  requested number of processors reduced to:  10 ShMem   1 Linda.
     ILin= 2 X=3.833D-01 Y=-3.010131703670D+03 DE=-6.64D-04
 FoFJK:  IHMeth= 1 ICntrl=     0 DoSepK=T KAlg= 1 I1Cent= 0 FoldK=F
 CoulSu:  requested number of processors reduced to:  10 ShMem   1 Linda.
 CoulSu:  requested number of processors reduced to:  10 ShMem   1 Linda.
 CoulSu:  requested number of processors reduced to:  10 ShMem   1 Linda.
     ILin= 3 X=5.421D-01 Y=-3.010131915457D+03 DE=-8.76D-04
 FoFJK:  IHMeth= 1 ICntrl=     0 DoSepK=T KAlg= 1 I1Cent= 0 FoldK=F
 CoulSu:  requested number of processors reduced to:  10 ShMem   1 Linda.
 CoulSu:  requested number of processors reduced to:  10 ShMem   1 Linda.
 CoulSu:  requested number of processors reduced to:  10 ShMem   1 Linda.
     ILin= 4 X=7.666D-01 Y=-3.010132151191D+03 DE=-1.11D-03
 FoFJK:  IHMeth= 1 ICntrl=     0 DoSepK=T KAlg= 1 I1Cent= 0 FoldK=F
 CoulSu:  requested number of processors reduced to:  10 ShMem   1 Linda.
 CoulSu:  requested number of processors reduced to:  10 ShMem   1 Linda.
 CoulSu:  requested number of processors reduced to:  10 ShMem   1 Linda.
     ILin= 5 X=1.084D+00 Y=-3.010132356454D+03 DE=-1.32D-03
 FoFJK:  IHMeth= 1 ICntrl=     0 DoSepK=T KAlg= 1 I1Cent= 0 FoldK=F
 CoulSu:  requested number of processors reduced to:  10 ShMem   1 Linda.
 CoulSu:  requested number of processors reduced to:  10 ShMem   1 Linda.
 CoulSu:  requested number of processors reduced to:  10 ShMem   1 Linda.
     ILin= 6 X=1.533D+00 Y=-3.010132389021D+03 DE=-1.35D-03
 FoFJK:  IHMeth= 1 ICntrl=     0 DoSepK=T KAlg= 1 I1Cent= 0 FoldK=F
 CoulSu:  requested number of processors reduced to:  10 ShMem   1 Linda.
 CoulSu:  requested number of processors reduced to:  10 ShMem   1 Linda.
 CoulSu:  requested number of processors reduced to:  10 ShMem   1 Linda.
     ILin= 7 X=2.168D+00 Y=-3.010131915828D+03 DE=-8.77D-04
     An  expanding polynomial of degree  7 produced  1.3571
 FoFJK:  IHMeth= 1 ICntrl=     0 DoSepK=T KAlg= 1 I1Cent= 0 FoldK=F
 CoulSu:  requested number of processors reduced to:  10 ShMem   1 Linda.
 CoulSu:  requested number of processors reduced to:  10 ShMem   1 Linda.
 CoulSu:  requested number of processors reduced to:  10 ShMem   1 Linda.
 Iteration  25 EE= -3010.13241235388     Delta-E=       -0.001373175744 Grad=5.491D-02
 Gradient too large for Newton-Raphson -- use scaled steepest descent instead.
     ILin= 1 X=0.000D+00 Y=-3.010132412354D+03 DE= 0.00D+00
 FoFJK:  IHMeth= 1 ICntrl=     0 DoSepK=T KAlg= 1 I1Cent= 0 FoldK=F
 CoulSu:  requested number of processors reduced to:  10 ShMem   1 Linda.
 CoulSu:  requested number of processors reduced to:  10 ShMem   1 Linda.
 CoulSu:  requested number of processors reduced to:  10 ShMem   1 Linda.
     ILin= 2 X=1.357D+00 Y=-3.010125410344D+03 DE= 7.00D-03
 FoFJK:  IHMeth= 1 ICntrl=     0 DoSepK=T KAlg= 1 I1Cent= 0 FoldK=F
 CoulSu:  requested number of processors reduced to:  10 ShMem   1 Linda.
 CoulSu:  requested number of processors reduced to:  10 ShMem   1 Linda.
 CoulSu:  requested number of processors reduced to:  10 ShMem   1 Linda.
     ILin= 3 X=9.596D-01 Y=-3.010130842003D+03 DE= 1.57D-03
 FoFJK:  IHMeth= 1 ICntrl=     0 DoSepK=T KAlg= 1 I1Cent= 0 FoldK=F
 CoulSu:  requested number of processors reduced to:  10 ShMem   1 Linda.
 CoulSu:  requested number of processors reduced to:  10 ShMem   1 Linda.
 CoulSu:  requested number of processors reduced to:  10 ShMem   1 Linda.
     ILin= 4 X=6.786D-01 Y=-3.010133011432D+03 DE=-5.99D-04
     A contracting polynomial of degree  4 produced  0.3871
 FoFJK:  IHMeth= 1 ICntrl=     0 DoSepK=T KAlg= 1 I1Cent= 0 FoldK=F
 CoulSu:  requested number of processors reduced to:  10 ShMem   1 Linda.
 CoulSu:  requested number of processors reduced to:  10 ShMem   1 Linda.
 CoulSu:  requested number of processors reduced to:  10 ShMem   1 Linda.
 Iteration  26 EE= -3010.13377442794     Delta-E=       -0.001362074062 Grad=2.228D-02
 Gradient too large for Newton-Raphson -- use scaled steepest descent instead.
     ILin= 1 X=0.000D+00 Y=-3.010133774428D+03 DE= 0.00D+00
 FoFJK:  IHMeth= 1 ICntrl=     0 DoSepK=T KAlg= 1 I1Cent= 0 FoldK=F
 CoulSu:  requested number of processors reduced to:  10 ShMem   1 Linda.
 CoulSu:  requested number of processors reduced to:  10 ShMem   1 Linda.
 CoulSu:  requested number of processors reduced to:  10 ShMem   1 Linda.
     ILin= 2 X=3.871D-01 Y=-3.010134431227D+03 DE=-6.57D-04
 FoFJK:  IHMeth= 1 ICntrl=     0 DoSepK=T KAlg= 1 I1Cent= 0 FoldK=F
 CoulSu:  requested number of processors reduced to:  10 ShMem   1 Linda.
 CoulSu:  requested number of processors reduced to:  10 ShMem   1 Linda.
 CoulSu:  requested number of processors reduced to:  10 ShMem   1 Linda.
     ILin= 3 X=5.475D-01 Y=-3.010134637760D+03 DE=-8.63D-04
 FoFJK:  IHMeth= 1 ICntrl=     0 DoSepK=T KAlg= 1 I1Cent= 0 FoldK=F
 CoulSu:  requested number of processors reduced to:  10 ShMem   1 Linda.
[...]
 ,0.00001078,0.00003680,0.00012750,-0.00064263,0.00036709,-0.00016977,0
 .00006321,0.00034808,0.00031833,0.00117634,0.00005222,0.00013695,0.000
 31924,-0.00034235,-0.00002105,-0.00023437,-0.00005795,-0.00014400,-0.0
 0027071,-0.00001854,-0.00039184,-0.00006433,-0.00069881,-0.00003436,-0
 .00009646,0.00008845,-0.00004164,-0.00002792,0.00050742,-0.00004234,-0
 .00008024,0.00008301,0.00110437,-0.00053322,-0.00331773,0.00108840,0.0
 0315915,0.00417589,-0.00141178,-0.00781750,0.00541226,0.01523291,0.013
 71053,-0.00580697,-0.00182193,0.09522895,-0.11979080,-0.01076176,-0.00
 481362,-0.00135668,0.00215237,-0.00020752,0.00044799,0.00161091,0.0010
 2097,-0.00106314,-0.00635514,0.01497241,-0.01090183,0.09763456,-0.0278
 4100,0.18883615,0.00000480,0.00002732,0.00009263,-0.00001306,0.0000343
 2,-0.00003856,0.00001469,-0.00001028,0.00008295,-0.00001753,0.00001197
 ,-0.00007969,-0.00020941,0.00002175,-0.00019891,-0.00004037,0.00006689
 ,0.00016700,0.00013960,-0.00030683,0.00008378,-0.00011856,0.00033856,-
 0.00034472,0.00004583,0.00040723,0.00044321,-0.00015094,0.00006727,0.0
 0000273,0.00000369,-0.00000777,-0.00000270,0.00000832,0.00000223,-0.00
 000506,-0.00001726,0.00000872,0.00000417,-0.00000345,-0.00002728,0.000
 00170,-0.00000605,-0.00000008,0.00001126,-0.00001679,0.00000081,0.0000
 0328,-0.00002178,-0.00001248,0.00000134,-0.00001084,0.00000286,-0.0000
 0471,-0.00033470,-0.00006888,-0.00016999,-0.00006725,0.00003352,0.0000
 4703,0.00102832,0.00042626,-0.00043971,0.00012694,0.00004490,0.0001200
 6,-0.00024840,-0.00019071,0.00003193,-0.00020503,0.00016686,0.00016693
 ,-0.00020597,-0.00085689,0.00059593,-0.00002311,-0.00001644,-0.0000321
 8,-0.00007384,-0.00006662,-0.00013897,-0.00001503,-0.00001628,-0.00005
 033,0.00037260,0.00062838,0.00077341,-0.00068018,-0.00105509,-0.000268
 34,-0.00002980,-0.00065565,-0.00072847,0.00240765,-0.00284848,0.000443
 75,-0.00263023,0.00108042,0.00204266,-0.00357810,0.01882982,-0.0118912
 3,-0.01449217,-0.02676899,0.03192135,-0.00129107,0.00336445,-0.0015416
 2,0.00078298,-0.00015207,-0.00004713,0.00058278,-0.00010371,-0.0005230
 9,0.01960515,0.00005481,0.00004966,-0.00000031,0.00002637,-0.00001197,
 0.00000466,-0.00000389,-0.00000822,0.00004207,-0.00000014,0.00001279,-
 0.00001875,0.00000961,-0.00001434,-0.00003025,0.00005649,0.00001882,0.
 00019001,-0.00015772,-0.00038585,0.00003513,0.00031964,-0.00007482,0.0
 0029893,0.00062828,0.00063226,-0.00037060,0.00004406,-0.00012569,0.000
 31228,-0.00000863,0.00001570,0.00000677,-0.00000683,-0.00000558,0.0000
 1263,0.00000726,-0.00000792,-0.00001303,-0.00001153,-0.00001680,-0.000
 01490,0.00001053,0.00004108,0.00000418,0.00000763,0.00001901,0.0000119
 4,-0.00002693,-0.00002004,-0.00001930,0.00000964,-0.00000669,0.0000169
 3,-0.00003270,-0.00001835,0.00031145,-0.00004125,0.00000235,0.00004456
 ,0.00025360,0.00032670,-0.00078704,0.00004838,-0.00017468,-0.00025536,
 -0.00005746,-0.00009058,0.00012855,-0.00004468,0.00023133,0.00001907,-
 0.00082307,-0.00062106,-0.00026876,-0.00002296,0.00004318,0.00007244,-
 0.00002798,0.00016669,0.00021062,0.00001548,0.00005342,0.00007332,0.00
 066084,-0.00082780,-0.00135991,-0.00061025,0.00251924,-0.00031867,-0.0
 0034344,-0.00006750,0.00022331,-0.00365994,0.00011469,-0.00004835,0.00
 166254,0.00097079,-0.00112750,0.00017207,-0.01461802,0.01325312,-0.006
 16429,-0.30113260,0.25319292,0.00104074,0.00110170,-0.00041133,-0.0005
 8555,-0.00016306,0.00003772,-0.00007391,-0.00069296,0.00017915,0.00761
 150,0.31283134,0.00008656,-0.00006675,0.00005158,-0.00004891,0.0000049
 1,-0.00012194,-0.00002327,-0.00002532,-0.00001845,0.00007475,-0.000014
 95,0.00018568,-0.00016934,-0.00004257,-0.00002677,0.00012864,0.0001043
 0,0.00006304,-0.00004731,-0.00024427,0.00013535,-0.00015484,0.00025615
 ,-0.00035420,0.00181303,-0.00065469,-0.00063910,0.00003696,0.00007270,
 0.00074536,-0.00001893,0.00001770,0.00002090,0.00001457,-0.00001142,-0
 .00001210,-0.00000369,-0.00000680,-0.00000513,0.00000152,0.00000630,0.
 00000251,-0.00000157,0.00002435,0.00001654,-0.00000252,0.00002784,0.00
 001265,-0.00003244,-0.00003696,-0.00000363,-0.00000991,-0.00001914,-0.
 00002200,-0.00043019,0.00090588,-0.00016672,0.00001523,-0.00003471,-0.
 00004394,0.00007152,-0.00227697,-0.00084560,0.00002139,-0.00032038,0.0
 0001649,0.00007997,0.00055883,0.00030487,0.00013626,0.00060675,0.00010
 511,-0.00112430,0.00098457,-0.00022398,-0.00002745,0.00010956,0.000009
 09,-0.00002180,0.00010314,-0.00018102,0.00000641,0.00007809,-0.0000072
 6,0.00016024,-0.00006936,0.00152907,0.00122550,-0.00201505,-0.00355913
 ,-0.00014208,-0.00018619,-0.00060887,0.00245466,-0.00113190,-0.0015613
 8,-0.00053941,-0.00007154,0.00204782,0.00289043,-0.00173327,0.00006505
 ,0.01464907,0.26816858,-0.24061539,-0.00043062,0.00077292,0.00082654,0
 .00027325,-0.00002737,-0.00029794,-0.00011473,0.00011906,-0.00049848,-
 0.02090166,-0.26403042,0.24301719,0.00001016,-0.00001879,0.00002419,-0
 .00000747,0.00001002,-0.00001907,0.00000267,-0.00000612,0.00001818,0.0
 0000434,-0.00000304,-0.00000137,-0.00002283,0.00001176,-0.00001849,0.0
 0000679,-0.00000073,-0.00000421,0.00006104,-0.00001470,-0.00001777,-0.
 00000364,0.00002803,-0.00001084,0.00004437,-0.00000784,-0.00000681,-0.
 00000641,-0.00001074,0.00001939,0.00000453,-0.00000442,-0.00000171,0.0
 0000451,0.00000122,-0.00000304,-0.00000744,0.00000255,0.00000285,-0.00
 000478,-0.00002907,-0.00001156,-0.00000791,-0.00001040,0.00001588,-0.0
 0000656,-0.00000281,-0.00000386,-0.00000684,0.00000189,0.00000226,-0.0
 0000807,-0.00000030,-0.00000449,-0.00013509,-0.00001341,-0.00013487,-0
 .00001312,0.00000796,-0.00000115,0.00029141,-0.00010083,-0.00005583,0.
 00004349,0.00003234,0.00006830,-0.00006194,0.00002075,0.00002158,-0.00
 012247,0.00001499,0.00004509,-0.00008247,0.00001384,0.00001987,-0.0000
 1277,-0.00001007,-0.00001943,-0.00006771,-0.00007467,-0.00010931,-0.00
 000913,-0.00001606,-0.00003074,0.00000923,0.00043131,0.00054441,0.0005
 9355,-0.00078952,-0.00397137,-0.00008814,-0.00012974,-0.00019496,-0.00
 082472,-0.00143952,-0.00011719,0.00018351,-0.00000085,0.00065204,0.002
 00430,0.00231276,-0.00191861,-0.00173076,0.00035209,-0.00017099,-0.092
 80127,0.11484981,0.16704164,-0.00005850,-0.00005207,-0.00030100,-0.000
 07679,0.00005287,-0.00010557,-0.00028910,0.00004986,0.00023572,0.09328
 700,-0.00000353,0.00000585,0.00000166,0.00000706,-0.00000142,0.0000109
 1,0.00000080,0.00000230,0.00000359,-0.00000623,-0.00000032,-0.00001520
 ,0.00001830,0.00000218,0.00000805,-0.00001199,-0.00001203,-0.00002010,
 0.00001788,0.00004364,-0.00000851,0.00001264,-0.00001336,0.00001743,-0
 .00005027,0.00001072,-0.00002655,-0.00000164,0.00000089,-0.00002153,0.
 00000254,-0.00000308,-0.00000434,-0.00000261,0.00000129,0.00000442,-0.
 00000038,0.00000259,-0.00000110,-0.00000718,-0.00001092,-0.00001698,-0
 .00000062,-0.00000889,-0.00000498,-0.00000015,-0.00000468,-0.00000453,
 0.00000122,0.00000730,-0.00000139,0.00000087,0.00000141,0.00000530,0.0
 0003242,-0.00010616,0.00001153,-0.00000521,0.00000059,0.00001083,-0.00
 000490,0.00019955,0.00007054,0.00001002,0.00006212,-0.00002160,-0.0000
 0566,-0.00004596,-0.00001711,-0.00002934,-0.00006342,-0.00000313,0.000
 02777,-0.00007553,-0.00001685,-0.00000091,-0.00001720,0.00000675,-0.00
 000758,-0.00005376,0.00003877,-0.00000266,-0.00001497,0.00000617,0.000
 04177,0.00016718,-0.00008370,0.00032342,0.00044442,0.00090883,-0.00002
 387,-0.00006420,-0.00005317,-0.00135864,-0.00263985,0.00154192,0.00016
 353,0.00002045,0.00001653,-0.00373206,0.00303596,0.01492882,0.00016624
 ,-0.00146187,-0.00113421,0.12010706,-0.15837976,-0.21635674,-0.0000156
 0,-0.00006986,-0.00006881,-0.00007287,-0.00016530,0.00010243,-0.000023
 11,-0.00021896,0.00001695,-0.11551461,0.15932950,0.00002861,0.00001662
 ,-0.00002247,-0.00000179,-0.00000361,-0.00001722,-0.00000658,-0.000006
 04,0.00000654,0.00001001,0.00000511,0.00002013,-0.00002340,-0.00000943
 ,-0.00002068,0.00001630,0.00002414,0.00002745,-0.00001011,-0.00007633,
 -0.00003045,-0.00000015,0.00002418,-0.00002989,0.00011545,-0.00002798,
 0.00003480,-0.00001082,0.00000013,0.00005072,-0.00000204,0.00001092,0.
 00000688,-0.00000058,-0.00000407,0.00000420,0.00000922,-0.00000751,-0.
 00000723,0.00000784,-0.00002742,-0.00001141,-0.00000454,-0.00000366,0.
 00001594,0.00000129,0.00001316,0.00000417,-0.00001441,-0.00001232,-0.0
 0000739,0.00000395,-0.00000694,0.00000289,-0.00001080,0.00009662,0.000
 08828,0.00000128,0.00000216,-0.00002391,0.00004510,-0.00022305,-0.0002
 4809,-0.00001840,-0.00010647,-0.00013160,0.00000643,0.00004678,0.00008
 010,-0.00001946,0.00008668,0.00004503,-0.00009140,0.00010109,0.0000312
 1,-0.00001798,0.00003117,0.00003245,0.00000100,0.00007355,0.00007236,0
 .00001336,0.00002570,0.00003108,-0.00020510,-0.00007030,-0.00028668,-0
 .00039921,0.00095599,-0.00150332,-0.00012966,0.00020996,0.00035935,-0.
 00184352,0.00004798,0.00132999,0.00131936,0.00009350,-0.00091057,0.010
 77372,-0.01197928,-0.02336026,0.00090384,-0.00297359,0.00395674,0.1514
 2574,-0.18655680,-0.30557737,-0.00051442,-0.00000131,-0.00004600,-0.00
 024460,-0.00014528,0.00021359,0.00037909,0.00024506,0.00057309,-0.1617
 0372,0.20009934,0.32514383,0.00023219,-0.00000798,0.00003135,0.0000087
 6,-0.00000874,0.00000643,-0.00000942,-0.00000086,0.00000203,0.00000100
 ,0.00000700,0.00000415,0.00001180,-0.00000701,0.00000017,0.00000359,0.
 00001006,0.00001169,-0.00003456,-0.00001261,0.00000823,0.00000641,-0.0
 0001083,0.00000582,0.00001349,0.00001847,0.00002867,-0.00000022,-0.000
 00338,0.00004291,-0.00000385,0.00001420,0.00000757,-0.00000766,-0.0000
 0384,0.00001096,0.00000651,-0.00001261,-0.00001538,-0.00000797,-0.0000
 0361,-0.00001294,0.00000598,0.00002153,-0.00001501,0.00001250,0.000012
 96,0.00000516,-0.00001514,-0.00000870,-0.00001109,0.00001517,-0.000006
 13,0.00001192,0.00009838,0.00006655,0.00025160,-0.00000625,-0.00001632
 ,-0.00000155,-0.00013204,0.00007249,-0.00015594,0.00004658,-0.00012542
 ,-0.00024434,0.00004035,-0.00002069,0.00004602,0.00003371,-0.00000968,
 0.00001716,-0.00000890,-0.00000639,-0.00003348,-0.00002594,0.00004189,
 0.00007491,0.00002254,0.00012243,0.00023559,-0.00000450,0.00003788,0.0
 0007174,0.00002116,-0.00057155,-0.00116376,0.00045882,0.00097339,0.001
 19541,-0.00117045,-0.00054477,0.00085307,0.00405095,-0.00129637,0.0020
 4648,-0.00803056,0.01403295,-0.02467084,-0.00363116,-0.00150879,-0.000
 16397,0.00091700,-0.00020348,-0.00000101,0.00071505,0.00029114,-0.0002
 7560,-0.01843400,-0.00411975,0.00202413,-0.00182481,0.00136468,-0.0023
 6643,-0.00016674,0.00013259,-0.00009072,-0.00009219,-0.00002055,0.0001
 5894,0.02722365,0.00019224,0.00012735,0.00019349,0.00000646,-0.0000029
 5,0.00000960,-0.00000067,0.00000351,-0.00000006,-0.00000586,0.00000065
 ,-0.00000988,0.00000991,-0.00000057,0.00000109,-0.00001073,-0.00000596
 ,-0.00000267,0.00000066,0.00001134,0.00000310,0.00000550,-0.00000598,-
 0.00000172,-0.00000436,0.00001004,-0.00001082,-0.00000227,0.00000566,-
 0.00000748,0.00000108,-0.00000475,-0.00000823,0.00000257,-0.00000012,0
 .00000837,0.00000850,0.00001187,-0.00000197,0.00000364,-0.00000915,0.0
 0000300,-0.00002389,-0.00006424,-0.00004737,-0.00000604,-0.00000394,-0
 .00000436,0.00000689,0.00000403,0.00000039,0.00000204,0.00000195,0.000
 00511,0.00005078,-0.00012852,-0.00002505,-0.00000691,0.00000406,0.0000
 1364,-0.00003778,0.00014330,0.00005758,-0.00003920,0.00010287,-0.00000
 411,0.00000802,-0.00003485,-0.00001459,0.00000673,-0.00003178,-0.00000
 736,0.00000659,-0.00005535,-0.00000061,0.00000672,-0.00003340,-0.00000
 555,0.00005352,-0.00008309,0.00006738,0.00001436,-0.00002419,0.0000037
 1,-0.00007795,0.00051763,0.00005255,-0.00000293,-0.00074271,-0.0003427
 7,-0.00199474,-0.00223194,-0.00107983,-0.00309861,-0.00114427,-0.00074
 830,-0.00188761,-0.00079820,0.00276965,0.00111598,0.00177064,-0.000241
 71,-0.00036963,-0.00017089,-0.00000017,-0.00004393,-0.00043256,0.00012
 318,0.01345264,-0.16386590,0.24422842,0.00114073,0.00059972,0.00142050
 ,0.00009785,-0.00001297,0.00007340,0.00008565,0.00006617,-0.00001452,-
 0.00859195,0.16578962,0.00016108,0.00012594,-0.00011155,0.00001181,-0.
 00001178,0.00001460,-0.00000777,0.00000400,-0.00000921,-0.00000245,0.0
 0000679,-0.00000041,0.00001832,-0.00000655,-0.00000213,-0.00000415,0.0
 0000650,0.00000567,-0.00002348,-0.00000249,0.00000728,0.00001872,-0.00
 001966,0.00000637,-0.00001837,0.00002103,0.00002021,-0.00000518,0.0000
 1829,-0.00000265,0.00000032,0.00001328,0.00000655,-0.00000238,-0.00000
 442,0.00000847,0.00002129,-0.00001045,-0.00000870,0.00001553,0.0000232
 1,0.00001915,-0.00000818,-0.00000847,-0.00000795,0.00000871,0.00000998
 ,0.00000559,-0.00000126,-0.00000563,-0.00000664,0.00000761,-0.00000420
 ,0.00000866,0.00023116,0.00002833,0.00020159,0.00000977,0.00001149,-0.
 00007295,-0.00023664,0.00013410,-0.00004735,-0.00005372,-0.00009437,-0
 .00013331,0.00005637,-0.00003508,0.00002344,0.00006212,-0.00001940,-0.
 00000276,0.00003825,-0.00003899,-0.00001425,-0.00000641,0.00002358,0.0
 0003097,0.00010000,0.00009189,0.00009781,0.00002313,0.00003232,0.00004
 638,-0.00076267,-0.00044570,-0.00026238,0.00043270,0.00014849,-0.00021
 087,0.00065349,-0.00038608,0.00152135,0.00400892,-0.00055549,-0.001400
 48,-0.00088000,0.00835224,-0.01030298,-0.00135803,-0.00079331,0.001614
 78,0.00043865,-0.00004891,-0.00029545,-0.00020176,0.00013199,-0.000808
 61,-0.02463129,0.23982813,-0.37771208,-0.00025261,-0.00058427,0.002163
 89,-0.00009917,0.00009357,0.00000287,0.00017672,0.00002811,0.00010797,
 0.02201300,-0.24633717,0.38579006,0.00023662,-0.00049367,-0.00048407,-
 0.00000710,-0.00000346,-0.00000950,-0.00000557,-0.00000705,-0.00000420
 ,0.00000901,0.00000383,0.00002001,-0.00001019,-0.00000767,0.00000021,0
 .00001996,0.00001640,-0.00000555,-0.00001257,-0.00001544,0.00000392,-0
 .00008965,-0.00001582,-0.00006521,0.00001147,-0.00012936,-0.00003388,0
 .00002363,-0.00008843,-0.00005129,-0.00000626,0.00000757,0.00000662,0.
 00000241,-0.00000259,0.00000890,0.00000343,-0.00000244,-0.00001598,0.0
 0000380,0.00000524,0.00000107,0.00000582,0.00001295,-0.00000202,0.0000
 0680,0.00000962,0.00000305,-0.00001260,-0.00000803,-0.00000565,0.00000
 843,-0.00000581,0.00000335,0.00001787,0.00014632,0.00011861,-0.0000020
 1,-0.00001605,-0.00000893,-0.00004157,-0.00023675,-0.00015479,0.000038
 52,-0.00009800,-0.00013826,0.00003116,0.00005045,0.00005202,0.00002957
 ,0.00006714,0.00003171,-0.00001678,0.00032016,0.00019230,-0.00002427,0
 .00003315,0.00004647,0.00001917,0.00007849,0.00009071,-0.00000857,0.00
 002742,0.00003763,-0.00022714,-0.00027848,-0.00026783,0.00006874,0.000
 30382,0.00023330,0.00171317,0.00388145,0.00017080,0.00034533,0.0009377
 3,0.00040608,0.00019147,-0.00173524,-0.00318721,-0.00035596,-0.0006745
 2,0.00013032,0.00011138,0.00025347,-0.00000394,0.00000772,0.00014798,-
 0.00016495,-0.00197981,0.00076953,-0.00082383,-0.22597326,-0.24871298,
 -0.09541944,-0.00016660,-0.00011881,-0.00003997,-0.00000280,-0.0000313
 8,0.00005212,-0.00033924,-0.00007401,0.00004783,0.22637647,-0.00045927
 ,0.00010047,0.00029021,0.00001682,-0.00000785,0.00000581,-0.00001173,0
 .00000860,-0.00000123,-0.00000141,0.00000065,0.00000608,0.00001853,-0.
 00000479,-0.00000174,-0.00000205,0.00000479,0.00000411,-0.00002380,-0.
 00000415,0.00000862,0.00013661,-0.00001000,0.00005037,-0.00011827,0.00
 004529,0.00011365,-0.00009843,0.00012181,-0.00005471,-0.00000022,0.000
 00845,0.00000245,-0.00000407,-0.00000380,0.00000478,0.00001254,-0.0000
 0766,-0.00000066,-0.00000043,-0.00000366,-0.00001014,0.00000139,0.0000
 0470,-0.00000373,0.00000628,0.00000580,0.00000349,-0.00000154,-0.00000
 245,-0.00000627,0.00000404,-0.00000272,0.00000831,0.00011868,0.0000359
 7,0.00013949,0.00000866,-0.00001586,-0.00006255,-0.00020055,0.00007484
 ,-0.00011292,-0.00003829,-0.00005954,-0.00010256,0.00004214,-0.0000166
 2,0.00003990,0.00004211,-0.00002080,0.00000984,0.00014837,-0.00015573,
 -0.00007825,-0.00000083,0.00001682,0.00001954,0.00000837,0.00005230,0.
 00009286,0.00001927,0.00002225,0.00003152,0.00005528,-0.00034291,-0.00
 037729,0.00028295,0.00045253,0.00042374,-0.00002531,-0.00289854,0.0011
 1753,0.00265393,0.00114583,-0.00145468,-0.01638364,-0.02021327,-0.0034
 3844,-0.00180689,-0.00061360,0.00033487,0.00047034,-0.00023937,-0.0000
 7029,0.00028362,0.00011575,-0.00023580,-0.00064442,0.00333267,-0.00334
 990,-0.22997819,-0.27327260,-0.09102992,-0.00008625,0.00016567,0.00000
 803,-0.00002938,0.00002739,0.00004607,-0.00009820,0.00071789,0.0002791
 9,0.24568325,0.29143544,-0.00041786,0.00039779,0.00016160,-0.00000505,
 0.00000104,-0.00000259,0.00000744,-0.00000354,-0.00001721,0.00000427,0
 .00000384,-0.00000546,-0.00000218,-0.00000045,0.00000445,0.00000232,-0
 .00000252,-0.00000252,0.00000881,0.00000738,-0.00000500,-0.00004963,-0
 .00001024,-0.00000001,0.00004351,0.00002464,-0.00012403,0.00003777,-0.
 00009384,0.00004176,0.00000643,0.00000155,-0.00000163,-0.00000394,-0.0
 0000232,-0.00001426,0.00000079,-0.00000613,0.00001189,-0.00000031,0.00
 000406,0.00000374,-0.00000674,-0.00000440,0.00000475,-0.00000559,-0.00
 000108,-0.00000095,0.00000669,0.00000019,0.00000466,-0.00000720,0.0000
 0029,-0.00000693,-0.00003768,-0.00003707,-0.00012129,0.00000586,0.0000
 2076,0.00004060,0.00005675,-0.00004065,0.00010017,-0.00004607,0.000023
 61,0.00009333,-0.00002096,0.00000911,-0.00002165,-0.00000239,0.0000126
 3,-0.00001886,-0.00007365,0.00006086,0.00003639,0.00001662,-0.00000473
 ,-0.00002559,0.00000248,-0.00001693,-0.00007681,0.00001052,-0.00001157
 ,-0.00002502,-0.00002333,0.00012253,0.00026680,-0.00005187,-0.00023680
 ,-0.00031378,-0.00027479,0.00055489,0.00054658,0.00002928,0.00039392,-
 0.00286788,0.01068319,0.01803485,0.00109213,0.00012952,0.00032132,0.00
 010050,-0.00011477,-0.00013692,-0.00008922,-0.00000286,-0.00001718,-0.
 00013631,-0.00024819,-0.00183429,-0.00054605,-0.10908353,-0.11486312,-
 0.05995251,0.00009005,0.00005409,0.00008223,0.00004986,0.00004166,-0.0
 0000428,0.00005696,-0.00011785,-0.00029098,0.09922944,0.09735063,0.062
 07921\\-0.00000936,-0.00000840,-0.00000333,-0.00000029,-0.00000161,-0.
 00000163,0.00000075,0.00000031,0.00000192,0.00000127,-0.00000072,0.,0.
 00000114,0.00000200,0.00000132,0.00000040,-0.00000112,0.00000199,0.000
 00155,0.00000060,0.00000020,-0.00000303,-0.00000240,-0.00000141,-0.000
 00330,-0.00000059,0.00000022,-0.00000197,0.00000134,0.00000276,-0.0000
 0073,-0.00000059,-0.00000119,-0.00000061,0.00000088,-0.00000032,0.0000
 0005,-0.00000098,-0.00000146,-0.00000192,0.00000367,-0.00000005,-0.000
 00088,0.00000190,0.00000617,0.00000006,-0.00000030,-0.00000003,-0.0000
 0090,-0.00000033,0.00000157,-0.00000228,0.00000062,0.00000096,-0.00000
 736,0.00000123,-0.00000580,0.00000302,-0.00000537,-0.00000010,0.000002
 83,-0.00000152,0.00000157,-0.00000850,0.00000078,0.00000106,-0.0000011
 8,0.00000337,-0.00000147,-0.00000310,-0.00000249,-0.00000148,0.0000079
 0,0.00000345,-0.00000231,0.00000307,0.00000119,0.00000422,0.00000620,-
 0.00000582,-0.00001063,0.00000520,0.00000060,-0.00000395,-0.00000434,0
 .00000529,0.00000436,0.00000070,-0.00000801,-0.00000001,0.00001897,0.0
 0001266,0.00001160,-0.00000558,-0.00000922,-0.00000194,-0.00000063,-0.
 00000017,-0.00000916,0.00000675,0.00000889,0.00000015,0.00325358,0.002
 67800,-0.00128295,-0.00214944,0.00396201,0.00285438,-0.00516599,-0.002
 09256,0.00102338,0.00510827,0.00108706,0.00487143,-0.00040414,-0.00445
 342,0.00256277,0.00198918,-0.00240966,-0.00472221,0.00022436,0.0025424
 4,-0.00289049,-0.00285974,-0.00131302,-0.00241011\\\@


 ... I FELL INTO A REVERIE ... THE ATOMS WERE GAMBOLING BEFORE MY EYES
 ... I SAW HOW TWO SMALL ONES UNITED TO FORM A PAIR;
 HOW THE LARGER ONES SEIZED TWO OF THE SMALLER ONES;
 HOW STILL LARGER ONES KEPT HOLD OF THREE OR FOUR
 SMALLER ONES ... I SAW HOW THE LARGER ONES FORMED A CHAIN ...
 THIS WAS THE ORIGIN OF THE STRUCTURE THEORY.

                                   -- C.F.KEKULE VON STRADONITZ
 Job cpu time:  7 days  6 hours  9 minutes 54.4 seconds.
 File lengths (MBytes):  RWF=   2358 Int=      0 D2E=      0 Chk=     27 Scr=      1
 Normal termination of Gaussian 09 at Wed Jul 12 12:36:59 2017.
