 Entering Gaussian System, Link 0=g09
 Input=5VRigidFreq.gjf
 Output=5VRigidFreq.log
 Initial command:
 /share/apps/gaussian09/g09/l1.exe /state/partition1/311933.tatras.cnsi.ucsb.edu/Gau-15300.inp -scrdir=/state/partition1/311933.tatras.cnsi.ucsb.edu/
 Entering Link 1 = /share/apps/gaussian09/g09/l1.exe PID=     15301.
  
 Copyright (c) 1988,1990,1992,1993,1995,1998,2003,2009,2011,
            Gaussian, Inc.  All Rights Reserved.
  
 This is part of the Gaussian(R) 09 program.  It is based on
 the Gaussian(R) 03 system (copyright 2003, Gaussian, Inc.),
 the Gaussian(R) 98 system (copyright 1998, Gaussian, Inc.),
 the Gaussian(R) 94 system (copyright 1995, Gaussian, Inc.),
 the Gaussian 92(TM) system (copyright 1992, Gaussian, Inc.),
 the Gaussian 90(TM) system (copyright 1990, Gaussian, Inc.),
 the Gaussian 88(TM) system (copyright 1988, Gaussian, Inc.),
 the Gaussian 86(TM) system (copyright 1986, Carnegie Mellon
 University), and the Gaussian 82(TM) system (copyright 1983,
 Carnegie Mellon University). Gaussian is a federally registered
 trademark of Gaussian, Inc.
  
 This software contains proprietary and confidential information,
 including trade secrets, belonging to Gaussian, Inc.
  
 This software is provided under written license and may be
 used, copied, transmitted, or stored only in accord with that
 written license.
  
 The following legend is applicable only to US Government
 contracts under FAR:
  
                    RESTRICTED RIGHTS LEGEND
  
 Use, reproduction and disclosure by the US Government is
 subject to restrictions as set forth in subparagraphs (a)
 and (c) of the Commercial Computer Software - Restricted
 Rights clause in FAR 52.227-19.
  
 Gaussian, Inc.
 340 Quinnipiac St., Bldg. 40, Wallingford CT 06492
  
  
 ---------------------------------------------------------------
 Warning -- This program may not be used in any manner that
 competes with the business of Gaussian, Inc. or will provide
 assistance to any competitor of Gaussian, Inc.  The licensee
 of this program is prohibited from giving any competitor of
 Gaussian, Inc. access to this program.  By using this program,
 the user acknowledges that Gaussian, Inc. is engaged in the
 business of creating and licensing software in the field of
 computational chemistry and represents and warrants to the
 licensee that it is not a competitor of Gaussian, Inc. and that
 it will not use this program in any manner prohibited above.
 ---------------------------------------------------------------
  

 Cite this work as:
 Gaussian 09, Revision C.01,
 M. J. Frisch, G. W. Trucks, H. B. Schlegel, G. E. Scuseria, 
 M. A. Robb, J. R. Cheeseman, G. Scalmani, V. Barone, B. Mennucci, 
 G. A. Petersson, H. Nakatsuji, M. Caricato, X. Li, H. P. Hratchian, 
 A. F. Izmaylov, J. Bloino, G. Zheng, J. L. Sonnenberg, M. Hada, 
 M. Ehara, K. Toyota, R. Fukuda, J. Hasegawa, M. Ishida, T. Nakajima, 
 Y. Honda, O. Kitao, H. Nakai, T. Vreven, J. A. Montgomery, Jr., 
 J. E. Peralta, F. Ogliaro, M. Bearpark, J. J. Heyd, E. Brothers, 
 K. N. Kudin, V. N. Staroverov, T. Keith, R. Kobayashi, J. Normand, 
 K. Raghavachari, A. Rendell, J. C. Burant, S. S. Iyengar, J. Tomasi, 
 M. Cossi, N. Rega, J. M. Millam, M. Klene, J. E. Knox, J. B. Cross, 
 V. Bakken, C. Adamo, J. Jaramillo, R. Gomperts, R. E. Stratmann, 
 O. Yazyev, A. J. Austin, R. Cammi, C. Pomelli, J. W. Ochterski, 
 R. L. Martin, K. Morokuma, V. G. Zakrzewski, G. A. Voth, 
 P. Salvador, J. J. Dannenberg, S. Dapprich, A. D. Daniels, 
 O. Farkas, J. B. Foresman, J. V. Ortiz, J. Cioslowski, 
 and D. J. Fox, Gaussian, Inc., Wallingford CT, 2010.
 
 ******************************************
 Gaussian 09:  EM64L-G09RevC.01 23-Sep-2011
                 1-Jun-2017 
 ******************************************
 %nprocshared=12
 Will use up to   12 processors via shared memory.
 --------------------------------------
 #p uwb97xd/gen nosymm freq temp=373.15
 --------------------------------------
 1/10=4,30=1,38=1,112=373150/1,3;
 2/12=2,15=1,17=6,18=5,40=1/2;
 3/5=7,11=2,16=1,25=1,30=1,71=2,74=-58,116=2/1,2,3;
 4//1;
 5/5=2,38=5,98=1/2;
 8/6=4,10=90,11=11/1;
 11/6=1,8=1,9=11,15=111,16=1,31=1/1,2,10;
 10/6=1,31=1/2;
 6/7=2,8=2,9=2,10=2,18=1,28=1/1;
 7/8=1,10=1,25=1,30=1/1,2,3,16;
 1/10=4,30=1/3;
 99//99;
 Leave Link    1 at Thu Jun  1 22:05:59 2017, MaxMem=          0 cpu:       0.6
 (Enter /share/apps/gaussian09/g09/l101.exe)
 ------
 CrSite
 ------
 Charge =  0 Multiplicity = 5
 Symbolic Z-Matrix:
 Cr                   -0.09547   2.71699   3.39567 
 O                     0.90334   2.77146   1.88225 
 O                    -1.83253   2.76747   2.87523 
 O                    -1.14748   3.82366   0.50291 
 Si                   -2.37186   3.50967   1.54169 
 Si                    0.4525    3.4804    0.49922 
 F(Iso=10000000)      -3.09089   4.91474   1.90855 
 F(Iso=10000000)      -3.49475   2.624     0.78874 
 F(Iso=10000000)       0.78282   2.53808  -0.77104 
 F(Iso=10000000)       1.26734   4.85953   0.25203 
 C                     0.30341   4.34544   4.44741 
 C                     0.01469   5.64535   3.70748 
 H                     1.36744   4.25526   4.71007 
 H                    -0.29107   4.26131   5.36869 
 C                     0.38932   6.89109   4.52265 
 H                     0.57243   5.66788   2.76645 
 H                    -1.0455    5.69652   3.44948 
 C                     1.84558   7.00799   4.78786 
 H                     0.03902   7.77568   3.96869 
 H                    -0.16945   6.89614   5.46425 
 H                     2.21708   7.56021   5.64066 
 H                     2.56175   6.68588   4.04075 
 
 NAtoms=     22 NQM=        0 NQMF=       0 NMMI=     22 NMMIF=      0
                NMic=       0 NMicF=      0.
                    Isotopes and Nuclear Properties:
 (Nuclear quadrupole moments (NQMom) in fm**2, nuclear magnetic moments (NMagM)
  in nuclear magnetons)

  Atom         1           2           3           4           5           6           7           8           9          10
 IAtWgt=          52          16          16          16          28          28    10000000    10000000    10000000    10000000
 AtmWgt=  51.9405097  15.9949146  15.9949146  15.9949146  27.9769284  27.9769284************************************************
 NucSpn=           0           0           0           0           0           0           0           0           0           0
 AtZEff=   0.0000000   0.0000000   0.0000000   0.0000000   0.0000000   0.0000000   0.0000000   0.0000000   0.0000000   0.0000000
 NQMom=    0.0000000   0.0000000   0.0000000   0.0000000   0.0000000   0.0000000   0.0000000   0.0000000   0.0000000   0.0000000
 NMagM=    0.0000000   0.0000000   0.0000000   0.0000000   0.0000000   0.0000000   0.0000000   0.0000000   0.0000000   0.0000000

  Atom        11          12          13          14          15          16          17          18          19          20
 IAtWgt=          12          12           1           1          12           1           1          12           1           1
 AtmWgt=  12.0000000  12.0000000   1.0078250   1.0078250  12.0000000   1.0078250   1.0078250  12.0000000   1.0078250   1.0078250
 NucSpn=           0           0           1           1           0           1           1           0           1           1
 AtZEff=   0.0000000   0.0000000   0.0000000   0.0000000   0.0000000   0.0000000   0.0000000   0.0000000   0.0000000   0.0000000
 NQMom=    0.0000000   0.0000000   0.0000000   0.0000000   0.0000000   0.0000000   0.0000000   0.0000000   0.0000000   0.0000000
 NMagM=    0.0000000   0.0000000   2.7928460   2.7928460   0.0000000   2.7928460   2.7928460   0.0000000   2.7928460   2.7928460

  Atom        21          22
 IAtWgt=           1           1
 AtmWgt=   1.0078250   1.0078250
 NucSpn=           1           1
 AtZEff=   0.0000000   0.0000000
 NQMom=    0.0000000   0.0000000
 NMagM=    2.7928460   2.7928460
 Leave Link  101 at Thu Jun  1 22:05:59 2017, MaxMem=   33554432 cpu:       0.8
 (Enter /share/apps/gaussian09/g09/l103.exe)

 GradGradGradGradGradGradGradGradGradGradGradGradGradGradGradGradGradGrad
 Berny optimization.
 Initialization pass.
 Trust Radius=3.00D-01 FncErr=1.00D-07 GrdErr=1.00D-07
 Number of steps in this run=      2 maximum allowed number of steps=      2.
 GradGradGradGradGradGradGradGradGradGradGradGradGradGradGradGradGradGrad

 Leave Link  103 at Thu Jun  1 22:05:59 2017, MaxMem=   33554432 cpu:       0.1
 (Enter /share/apps/gaussian09/g09/l202.exe)
                          Input orientation:                          
 ---------------------------------------------------------------------
 Center     Atomic      Atomic             Coordinates (Angstroms)
 Number     Number       Type             X           Y           Z
 ---------------------------------------------------------------------
      1         24           0       -0.095472    2.716987    3.395667
      2          8           0        0.903341    2.771463    1.882251
      3          8           0       -1.832528    2.767467    2.875230
      4          8           0       -1.147483    3.823658    0.502908
      5         14           0       -2.371855    3.509670    1.541693
      6         14           0        0.452501    3.480397    0.499218
      7          9           0       -3.090888    4.914737    1.908546
      8          9           0       -3.494745    2.623997    0.788738
      9          9           0        0.782815    2.538077   -0.771037
     10          9           0        1.267339    4.859529    0.252034
     11          6           0        0.303414    4.345444    4.447414
     12          6           0        0.014688    5.645347    3.707483
     13          1           0        1.367439    4.255264    4.710071
     14          1           0       -0.291067    4.261305    5.368692
     15          6           0        0.389316    6.891094    4.522651
     16          1           0        0.572429    5.667879    2.766446
     17          1           0       -1.045500    5.696520    3.449478
     18          6           0        1.845579    7.007992    4.787856
     19          1           0        0.039020    7.775676    3.968687
     20          1           0       -0.169451    6.896138    5.464254
     21          1           0        2.217084    7.560210    5.640662
     22          1           0        2.561751    6.685877    4.040751
 ---------------------------------------------------------------------
                    Distance matrix (angstroms):
                    1          2          3          4          5
     1  Cr   0.000000
     2  O    1.814118   0.000000
     3  O    1.814047   2.910499   0.000000
     4  O    3.271009   2.686183   2.685654   0.000000
     5  Si   3.040968   3.374587   1.618660   1.636077   0.000000
     6  Si   3.045076   1.618216   3.372693   1.636396   3.010747
     7  F    4.001768   4.533010   2.669966   2.634975   1.620433
     8  F    4.284832   4.534388   2.671516   2.651514   1.616243
     9  F    4.262021   2.666258   4.493095   2.646073   4.030466
    10  F    4.041060   2.673971   4.568047   2.639570   4.090119
    11  C    1.979180   3.068777   3.086101   4.235149   4.037177
    12  C    2.946974   3.518577   3.519523   3.865035   3.866180
    13  H    2.496810   3.227014   3.977433   4.920502   4.957504
    14  H    2.513166   3.975111   3.290138   4.959923   4.420470
    15  C    4.350664   4.920091   4.965369   5.284813   5.286228
    16  H    3.090271   3.046396   3.769356   3.388636   3.850545
    17  H    3.127789   3.848394   3.086831   3.492891   3.190795
    18  C    4.911068   5.222885   5.930317   6.120391   6.368876
    19  H    5.092816   5.490211   5.457151   5.388679   5.468220
    20  H    4.663671   5.567277   5.149252   5.917063   5.630740
    21  H    5.817622   6.227654   6.856920   7.188786   7.366599
    22  H    4.819653   4.767817   6.001838   5.870864   6.377621
                    6          7          8          9         10
     6  Si   0.000000
     7  F    4.074204   0.000000
     8  F    4.049444   2.581581   0.000000
     9  F    1.615742   5.275818   4.553877   0.000000
    10  F    1.620823   4.662748   5.288015   2.582746   0.000000
    11  C    4.044599   4.276825   5.547549   5.543341   4.335279
    12  C    3.895081   3.662590   5.473915   5.504751   3.758560
    13  H    4.378220   5.306612   6.455906   5.773479   4.499917
    14  H    4.987433   4.498731   5.824114   6.466762   5.382071
    15  C    5.274927   4.780309   6.872856   6.864891   4.810026
    16  H    3.152742   3.837070   5.451463   4.727971   2.731043
    17  H    3.982366   2.677549   4.745391   5.579538   4.034034
    18  C    5.725121   6.086119   7.983196   7.211858   5.052122
    19  H    5.536931   4.714390   7.009948   7.102863   4.881208
    20  H    6.058522   5.010370   7.153266   7.666705   5.777489
    21  H    6.796549   7.007267   8.973982   8.269754   6.101885
    22  H    5.221733   6.295678   7.984710   6.597133   4.400617
                   11         12         13         14         15
    11  C    0.000000
    12  C    1.523354   0.000000
    13  H    1.099668   2.183449   0.000000
    14  H    1.099655   2.183729   1.784506   0.000000
    15  C    2.548210   1.535165   2.817703   2.845083   0.000000
    16  H    2.155657   1.094136   2.530850   3.081519   2.148032
    17  H    2.154264   1.092330   3.080355   2.512448   2.153463
    18  C    3.095696   2.525108   2.795028   3.528019   1.484823
    19  H    3.473554   2.146421   3.835055   3.797338   1.100940
    20  H    2.786325   2.164401   3.147227   2.639369   1.094926
    21  H    3.926919   3.500633   3.537028   4.153019   2.244638
    22  H    3.277665   2.771516   2.789668   3.972474   2.234685
                   16         17         18         19         20
    16  H    0.000000
    17  H    1.756430   0.000000
    18  C    2.739144   3.445222   0.000000
    19  H    2.484495   2.401802   2.126977   0.000000
    20  H    3.055679   2.503171   2.128467   1.747503   0.000000
    21  H    3.814043   4.349607   1.081776   2.754249   2.483478
    22  H    2.572465   3.786910   1.083894   2.749005   3.087075
                   21         22
    21  H    0.000000
    22  H    1.855524   0.000000
 Symmetry turned off by external request.
 Stoichiometry    C4H8CrF4O3Si2(5)
 Framework group  C1[X(C4H8CrF4O3Si2)]
 Deg. of freedom    60
 Full point group                 C1      NOp   1
 Rotational constants (GHZ):      0.0000076      0.0000024      0.0000018
 Leave Link  202 at Thu Jun  1 22:05:59 2017, MaxMem=   33554432 cpu:       0.3
 (Enter /share/apps/gaussian09/g09/l301.exe)
 General basis read from cards:  (5D, 7F)
 Centers:   1
 def2TZVP
 ****
 Centers:  13 14 16 17 19 20 21 22 11 12 15 18  2  3  4  5  6
 TZVP
 ****
 Centers:   7  8  9 10
 6-31G
 ****
 Ernie: Thresh=  0.10000D-02 Tol=  0.10000D-05 Strict=F.
 Integral buffers will be    131072 words long.
 Raffenetti 2 integral format.
 Two-electron integral symmetry is turned off.
   306 basis functions,   593 primitive gaussians,   322 cartesian basis functions
    74 alpha electrons       70 beta electrons
       nuclear repulsion energy      1624.5326082897 Hartrees.
 IExCor= 4639 DFT=T Ex+Corr=wB97XD ExCW=0 ScaHFX=  1.000000
 ScaDFX=  1.000000  1.000000  1.000000  1.000000 ScalE2=  1.000000  1.000000
 IRadAn=      0 IRanWt=     -1 IRanGd=            0 ICorTp=0
  HFx wShort=  0.000000 wLong=  0.200000 cFull=  0.222036 cShort=  0.000000 cLong=  0.777964
  DFx wShort=  0.000000 wLong=  0.200000 cFull=  0.000000 cShort=  0.000000 cLong=  1.000000
 NAtoms=   22 NActive=   22 NUniq=   22 SFac= 1.00D+00 NAtFMM=   60 NAOKFM=F Big=F
 R6Disp: Dispersion energy =        -0.0170566298 Hartrees.
 Nuclear repulsion after empirical dispersion term =     1624.5155516599 Hartrees.
 Leave Link  301 at Thu Jun  1 22:05:59 2017, MaxMem=   33554432 cpu:       0.6
 (Enter /share/apps/gaussian09/g09/l302.exe)
 NPDir=0 NMtPBC=     1 NCelOv=     1 NCel=       1 NClECP=     1 NCelD=      1
         NCelK=      1 NCelE2=     1 NClLst=     1 CellRange=     0.0.
 One-electron integrals computed using PRISM.
 PrsmSu:  requested number of processors reduced to:   9 ShMem   1 Linda.
 NBasis=   306 RedAO= T  NBF=   306
 NBsUse=   306 1.00D-06 NBFU=   306
 Precomputing XC quadrature grid using
 IXCGrd= 2 IRadAn=           0 IRanWt=          -1 IRanGd=           0 AccXCQ= 0.00D+00.
 NRdTot=    1413 NPtTot=      183424 NUsed=      193614 NTot=      193646
 NSgBfM=   317   317   317   317   317 NAtAll=    22    22.
 Leave Link  302 at Thu Jun  1 22:06:00 2017, MaxMem=   33554432 cpu:       5.0
 (Enter /share/apps/gaussian09/g09/l303.exe)
 DipDrv:  MaxL=1.
 Leave Link  303 at Thu Jun  1 22:06:00 2017, MaxMem=   33554432 cpu:       0.8
 (Enter /share/apps/gaussian09/g09/l401.exe)
 Harris functional with IExCor= 4639 diagonalized for initial guess.
 ExpMin= 3.41D-02 ExpMax= 2.54D+05 ExpMxC= 2.46D+03 IAcc=3 IRadAn=         5 AccDes= 0.00D+00
 HarFok:  IExCor= 4639 AccDes= 0.00D+00 IRadAn=         5 IDoV= 1
 ScaDFX=  1.000000  1.000000  1.000000  1.000000
 FoFCou: FMM=F IPFlag=           0 FMFlag=      100000 FMFlg1=           0
         NFxFlg=           0 DoJE=T BraDBF=F KetDBF=T FulRan=T
         Omega=  0.000000  0.000000  1.000000  0.000000  0.000000 ICntrl=     500 IOpCl=  0
         NMat0=    1 NMatS0=    1 NMatT0=    0 NMatD0=    1 NMtDS0=    0 NMtDT0=    0
         I1Cent=           4 NGrid=           0.
 Symmetry not used in FoFCou.
 Harris En= -2355.10191896854    
 Initial guess <Sx>= 0.0000 <Sy>= 0.0000 <Sz>= 2.0000 <S**2>= 6.0000 S= 2.0000
 Leave Link  401 at Thu Jun  1 22:06:02 2017, MaxMem=   33554432 cpu:      24.5
 (Enter /share/apps/gaussian09/g09/l502.exe)
 UHF open shell SCF:
 Requested convergence on RMS density matrix=1.00D-08 within 128 cycles.
 Requested convergence on MAX density matrix=1.00D-06.
 Requested convergence on             energy=1.00D-06.
 No special actions if energy rises.
 Using DIIS extrapolation, IDIIS=  1040.
 Two-electron integral symmetry not used.
       193403 words used for storage of precomputed grid.
 IEnd=      528441 IEndB=      528441 NGot=    33554432 MDV=    33146638
 LenX=    33146638 LenY=    33042513
 Fock matrices will be formed incrementally for  20 cycles.

 Cycle   1  Pass 1  IDiag  1:
 FoFJK:  IHMeth= 1 ICntrl=     0 DoSepK=T KAlg= 1 I1Cent= 0 FoldK=F
 FoFCou: FMM=F IPFlag=           0 FMFlag=      100000 FMFlg1=           0
         NFxFlg=           0 DoJE=T BraDBF=F KetDBF=F FulRan=T
         Omega=  0.000000  0.000000  1.000000  0.000000  0.000000 ICntrl=     500 IOpCl=  0
         NMat0=    1 NMatS0=    1 NMatT0=    0 NMatD0=    1 NMtDS0=    0 NMtDT0=    0
         I1Cent=           0 NGrid=           0.
 Symmetry not used in FoFCou.
 E= -2401.23834385183    
 DIIS: error= 1.11D-01 at cycle   1 NSaved=   1.
 NSaved= 1 IEnMin= 1 EnMin= -2401.23834385183     IErMin= 1 ErrMin= 1.11D-01
 ErrMax= 1.11D-01 EMaxC= 1.00D-01 BMatC= 2.27D+01 BMatP= 2.27D+01
 IDIUse=3 WtCom= 0.00D+00 WtEn= 1.00D+00
 Coeff-Com:  0.100D+01
 Coeff-En:   0.100D+01
 Coeff:      0.100D+01
 Gap=    -0.048 Goal=   None    Shift=    0.000
 Gap=     0.702 Goal=   None    Shift=    0.000
 GapD=   -0.048 DampG=0.250 DampE=0.125 DampFc=0.1250 IDamp=-1.
 Damping current iteration by 1.25D-01
 RMSDP=3.98D-02 MaxDP=5.12D+00              OVMax= 9.73D-01

 Cycle   2  Pass 1  IDiag  1:
 RMSU=  2.81D-03    CP:  9.17D-01
 FoFJK:  IHMeth= 1 ICntrl=     0 DoSepK=T KAlg= 1 I1Cent= 0 FoldK=F
 E= -2402.94536827343     Delta-E=       -1.707024421597 Rises=F Damp=T
 DIIS: error= 6.62D-02 at cycle   2 NSaved=   2.
 NSaved= 2 IEnMin= 2 EnMin= -2402.94536827343     IErMin= 2 ErrMin= 6.62D-02
 ErrMax= 6.62D-02 EMaxC= 1.00D-01 BMatC= 9.22D+00 BMatP= 2.27D+01
 IDIUse=3 WtCom= 3.38D-01 WtEn= 6.62D-01
 Coeff-Com: -0.108D+01 0.208D+01
 Coeff-En:   0.000D+00 0.100D+01
 Coeff:     -0.364D+00 0.136D+01
 Gap=     0.083 Goal=   None    Shift=    0.000
 Gap=    -0.147 Goal=   None    Shift=    0.000
 RMSDP=2.75D-02 MaxDP=4.61D+00 DE=-1.71D+00 OVMax= 8.99D-01

 Cycle   3  Pass 1  IDiag  1:
 RMSU=  1.02D-02    CP:  3.16D-01  3.00D+00
 FoFJK:  IHMeth= 1 ICntrl=     0 DoSepK=T KAlg= 1 I1Cent= 0 FoldK=F
 E= -2393.63689530073     Delta-E=        9.308472972699 Rises=F Damp=F
 DIIS: error= 3.44D-01 at cycle   3 NSaved=   3.
 NSaved= 3 IEnMin= 2 EnMin= -2402.94536827343     IErMin= 2 ErrMin= 6.62D-02
 ErrMax= 3.44D-01 EMaxC= 1.00D-01 BMatC= 8.38D+01 BMatP= 9.22D+00
 IDIUse=2 WtCom= 0.00D+00 WtEn= 1.00D+00
 EnCoef did   100 forward-backward iterations
 Coeff-En:   0.636D+00 0.262D-01 0.338D+00
 Coeff:      0.636D+00 0.262D-01 0.338D+00
 Gap=     0.151 Goal=   None    Shift=    0.000
 Gap=    -0.072 Goal=   None    Shift=    0.000
 RMSDP=5.66D-03 MaxDP=2.80D-01 DE= 9.31D+00 OVMax= 6.52D-01

 Cycle   4  Pass 1  IDiag  1:
 RMSU=  3.67D-03    CP:  3.09D-01  2.85D+00  9.69D-01
 FoFJK:  IHMeth= 1 ICntrl=     0 DoSepK=T KAlg= 1 I1Cent= 0 FoldK=F
 E= -2397.06764735347     Delta-E=       -3.430752052745 Rises=F Damp=F
 DIIS: error= 1.79D-01 at cycle   4 NSaved=   4.
 NSaved= 4 IEnMin= 2 EnMin= -2402.94536827343     IErMin= 2 ErrMin= 6.62D-02
 ErrMax= 1.79D-01 EMaxC= 1.00D-01 BMatC= 4.10D+01 BMatP= 9.22D+00
 IDIUse=2 WtCom= 0.00D+00 WtEn= 1.00D+00
 EnCoef did   100 forward-backward iterations
 Coeff-En:   0.591D+00 0.139D-01 0.166D+00 0.229D+00
 Coeff:      0.591D+00 0.139D-01 0.166D+00 0.229D+00
 Gap=     0.056 Goal=   None    Shift=    0.000
 Gap=    -0.147 Goal=   None    Shift=    0.000
 RMSDP=4.76D-03 MaxDP=3.99D-01 DE=-3.43D+00 OVMax= 9.88D-01

 Cycle   5  Pass 1  IDiag  1:
 RMSU=  2.32D-03    CP:  3.20D-01  2.63D+00  9.89D-01  5.16D-01
 FoFJK:  IHMeth= 1 ICntrl=     0 DoSepK=T KAlg= 1 I1Cent= 0 FoldK=F
 E= -2405.89419078272     Delta-E=       -8.826543429251 Rises=F Damp=F
 DIIS: error= 1.75D-02 at cycle   5 NSaved=   5.
 NSaved= 5 IEnMin= 5 EnMin= -2405.89419078272     IErMin= 5 ErrMin= 1.75D-02
 ErrMax= 1.75D-02 EMaxC= 1.00D-01 BMatC= 6.99D-01 BMatP= 9.22D+00
 IDIUse=3 WtCom= 8.25D-01 WtEn= 1.75D-01
 Coeff-Com: -0.171D+00 0.371D+00-0.434D-01 0.108D-01 0.832D+00
 Coeff-En:   0.000D+00 0.000D+00 0.000D+00 0.000D+00 0.100D+01
 Coeff:     -0.141D+00 0.306D+00-0.358D-01 0.888D-02 0.862D+00
 Gap=     0.293 Goal=   None    Shift=    0.000
 Gap=     0.386 Goal=   None    Shift=    0.000
 RMSDP=1.51D-03 MaxDP=5.95D-02 DE=-8.83D+00 OVMax= 1.11D-01

 Cycle   6  Pass 1  IDiag  1:
 RMSU=  1.14D-03    CP:  3.19D-01  2.58D+00  9.78D-01  5.64D-01  1.02D+00
 FoFJK:  IHMeth= 1 ICntrl=     0 DoSepK=T KAlg= 1 I1Cent= 0 FoldK=F
 E= -2406.00980794234     Delta-E=       -0.115617159621 Rises=F Damp=F
 DIIS: error= 7.84D-03 at cycle   6 NSaved=   6.
 NSaved= 6 IEnMin= 6 EnMin= -2406.00980794234     IErMin= 6 ErrMin= 7.84D-03
 ErrMax= 7.84D-03 EMaxC= 1.00D-01 BMatC= 1.46D-01 BMatP= 6.99D-01
 IDIUse=3 WtCom= 9.22D-01 WtEn= 7.84D-02
 Coeff-Com: -0.732D-01 0.119D+00-0.120D-01 0.897D-02 0.324D+00 0.633D+00
 Coeff-En:   0.000D+00 0.000D+00 0.000D+00 0.000D+00 0.000D+00 0.100D+01
 Coeff:     -0.675D-01 0.109D+00-0.110D-01 0.827D-02 0.299D+00 0.662D+00
 Gap=     0.264 Goal=   None    Shift=    0.000
 Gap=     0.351 Goal=   None    Shift=    0.000
 RMSDP=7.34D-04 MaxDP=5.34D-02 DE=-1.16D-01 OVMax= 4.49D-02

 Cycle   7  Pass 1  IDiag  1:
 RMSU=  5.48D-04    CP:  3.15D-01  2.61D+00  9.78D-01  5.77D-01  9.92D-01
                    CP:  9.26D-01
 FoFJK:  IHMeth= 1 ICntrl=     0 DoSepK=T KAlg= 1 I1Cent= 0 FoldK=F
 E= -2406.03523872811     Delta-E=       -0.025430785763 Rises=F Damp=F
 DIIS: error= 2.90D-03 at cycle   7 NSaved=   7.
 NSaved= 7 IEnMin= 7 EnMin= -2406.03523872811     IErMin= 7 ErrMin= 2.90D-03
 ErrMax= 2.90D-03 EMaxC= 1.00D-01 BMatC= 1.67D-02 BMatP= 1.46D-01
 IDIUse=3 WtCom= 9.71D-01 WtEn= 2.90D-02
 Coeff-Com: -0.336D-01 0.432D-01 0.923D-03 0.474D-02 0.293D-01 0.240D+00
 Coeff-Com:  0.715D+00
 Coeff-En:   0.000D+00 0.000D+00 0.000D+00 0.000D+00 0.000D+00 0.000D+00
 Coeff-En:   0.100D+01
 Coeff:     -0.326D-01 0.420D-01 0.896D-03 0.460D-02 0.284D-01 0.233D+00
 Coeff:      0.724D+00
 Gap=     0.252 Goal=   None    Shift=    0.000
 Gap=     0.343 Goal=   None    Shift=    0.000
 RMSDP=2.80D-04 MaxDP=1.70D-02 DE=-2.54D-02 OVMax= 2.21D-02

 Cycle   8  Pass 1  IDiag  1:
 RMSU=  1.66D-04    CP:  3.15D-01  2.62D+00  9.76D-01  5.83D-01  9.77D-01
                    CP:  1.02D+00  1.12D+00
 FoFJK:  IHMeth= 1 ICntrl=     0 DoSepK=T KAlg= 1 I1Cent= 0 FoldK=F
 E= -2406.03944177871     Delta-E=       -0.004203050598 Rises=F Damp=F
 DIIS: error= 2.13D-03 at cycle   8 NSaved=   8.
 NSaved= 8 IEnMin= 8 EnMin= -2406.03944177871     IErMin= 8 ErrMin= 2.13D-03
 ErrMax= 2.13D-03 EMaxC= 1.00D-01 BMatC= 4.91D-03 BMatP= 1.67D-02
 IDIUse=3 WtCom= 9.79D-01 WtEn= 2.13D-02
 Coeff-Com: -0.146D-01 0.183D-01 0.270D-02 0.775D-03-0.279D-01-0.110D+00
 Coeff-Com: -0.853D-02 0.114D+01
 Coeff-En:   0.000D+00 0.000D+00 0.000D+00 0.000D+00 0.000D+00 0.000D+00
 Coeff-En:   0.000D+00 0.100D+01
 Coeff:     -0.143D-01 0.179D-01 0.265D-02 0.759D-03-0.273D-01-0.108D+00
 Coeff:     -0.834D-02 0.114D+01
 Gap=     0.249 Goal=   None    Shift=    0.000
 Gap=     0.340 Goal=   None    Shift=    0.000
 RMSDP=2.12D-04 MaxDP=1.35D-02 DE=-4.20D-03 OVMax= 2.79D-02

 Cycle   9  Pass 1  IDiag  1:
 RMSU=  8.06D-05    CP:  3.14D-01  2.64D+00  9.74D-01  5.83D-01  9.64D-01
                    CP:  1.07D+00  1.33D+00  1.36D+00
 FoFJK:  IHMeth= 1 ICntrl=     0 DoSepK=T KAlg= 1 I1Cent= 0 FoldK=F
 E= -2406.04163706571     Delta-E=       -0.002195287008 Rises=F Damp=F
 DIIS: error= 8.24D-04 at cycle   9 NSaved=   9.
 NSaved= 9 IEnMin= 9 EnMin= -2406.04163706571     IErMin= 9 ErrMin= 8.24D-04
 ErrMax= 8.24D-04 EMaxC= 1.00D-01 BMatC= 6.71D-04 BMatP= 4.91D-03
 IDIUse=3 WtCom= 9.92D-01 WtEn= 8.24D-03
 Coeff-Com:  0.220D-03-0.230D-05-0.546D-04 0.105D-02-0.765D-02-0.729D-01
 Coeff-Com: -0.141D+00 0.318D+00 0.903D+00
 Coeff-En:   0.000D+00 0.000D+00 0.000D+00 0.000D+00 0.000D+00 0.000D+00
 Coeff-En:   0.000D+00 0.000D+00 0.100D+01
 Coeff:      0.218D-03-0.229D-05-0.541D-04 0.104D-02-0.758D-02-0.723D-01
 Coeff:     -0.140D+00 0.315D+00 0.904D+00
 Gap=     0.249 Goal=   None    Shift=    0.000
 Gap=     0.340 Goal=   None    Shift=    0.000
 RMSDP=9.65D-05 MaxDP=5.75D-03 DE=-2.20D-03 OVMax= 1.96D-02

 Cycle  10  Pass 1  IDiag  1:
 RMSU=  3.61D-05    CP:  3.14D-01  2.64D+00  9.73D-01  5.84D-01  9.57D-01
                    CP:  1.08D+00  1.39D+00  1.61D+00  1.44D+00
 FoFJK:  IHMeth= 1 ICntrl=     0 DoSepK=T KAlg= 1 I1Cent= 0 FoldK=F
 E= -2406.04220837285     Delta-E=       -0.000571307135 Rises=F Damp=F
 DIIS: error= 4.73D-04 at cycle  10 NSaved=  10.
 NSaved=10 IEnMin=10 EnMin= -2406.04220837285     IErMin=10 ErrMin= 4.73D-04
 ErrMax= 4.73D-04 EMaxC= 1.00D-01 BMatC= 2.70D-04 BMatP= 6.71D-04
 IDIUse=3 WtCom= 9.95D-01 WtEn= 4.73D-03
 Coeff-Com:  0.241D-02-0.275D-02-0.409D-03 0.187D-04-0.624D-03-0.107D-01
 Coeff-Com: -0.357D-01-0.788D-02 0.340D+00 0.716D+00
 Coeff-En:   0.000D+00 0.000D+00 0.000D+00 0.000D+00 0.000D+00 0.000D+00
 Coeff-En:   0.000D+00 0.000D+00 0.000D+00 0.100D+01
 Coeff:      0.239D-02-0.273D-02-0.407D-03 0.186D-04-0.621D-03-0.106D-01
 Coeff:     -0.355D-01-0.784D-02 0.338D+00 0.717D+00
 Gap=     0.248 Goal=   None    Shift=    0.000
 Gap=     0.341 Goal=   None    Shift=    0.000
 RMSDP=3.96D-05 MaxDP=2.12D-03 DE=-5.71D-04 OVMax= 9.64D-03

 Cycle  11  Pass 1  IDiag  1:
 RMSU=  1.71D-05    CP:  3.14D-01  2.64D+00  9.73D-01  5.84D-01  9.56D-01
                    CP:  1.08D+00  1.39D+00  1.67D+00  1.69D+00  1.33D+00
 FoFJK:  IHMeth= 1 ICntrl=     0 DoSepK=T KAlg= 1 I1Cent= 0 FoldK=F
 E= -2406.04238422497     Delta-E=       -0.000175852121 Rises=F Damp=F
 DIIS: error= 4.24D-04 at cycle  11 NSaved=  11.
 NSaved=11 IEnMin=11 EnMin= -2406.04238422497     IErMin=11 ErrMin= 4.24D-04
 ErrMax= 4.24D-04 EMaxC= 1.00D-01 BMatC= 2.15D-04 BMatP= 2.70D-04
 IDIUse=3 WtCom= 9.96D-01 WtEn= 4.24D-03
 Coeff-Com:  0.268D-02-0.343D-02-0.184D-03-0.479D-03-0.286D-02 0.915D-02
 Coeff-Com:  0.342D-01-0.582D-02-0.123D+00 0.106D+00 0.984D+00
 Coeff-En:   0.000D+00 0.000D+00 0.000D+00 0.000D+00 0.000D+00 0.000D+00
 Coeff-En:   0.000D+00 0.000D+00 0.000D+00 0.000D+00 0.100D+01
 Coeff:      0.267D-02-0.341D-02-0.183D-03-0.477D-03-0.285D-02 0.911D-02
 Coeff:      0.341D-01-0.580D-02-0.123D+00 0.106D+00 0.984D+00
 Gap=     0.249 Goal=   None    Shift=    0.000
 Gap=     0.341 Goal=   None    Shift=    0.000
 RMSDP=3.72D-05 MaxDP=1.75D-03 DE=-1.76D-04 OVMax= 9.00D-03

 Cycle  12  Pass 1  IDiag  1:
 RMSU=  9.38D-06    CP:  3.14D-01  2.64D+00  9.73D-01  5.84D-01  9.56D-01
                    CP:  1.09D+00  1.39D+00  1.69D+00  1.91D+00  1.85D+00
                    CP:  1.62D+00
 FoFJK:  IHMeth= 1 ICntrl=     0 DoSepK=T KAlg= 1 I1Cent= 0 FoldK=F
 E= -2406.04252518271     Delta-E=       -0.000140957736 Rises=F Damp=F
 DIIS: error= 3.68D-04 at cycle  12 NSaved=  12.
 NSaved=12 IEnMin=12 EnMin= -2406.04252518271     IErMin=12 ErrMin= 3.68D-04
 ErrMax= 3.68D-04 EMaxC= 1.00D-01 BMatC= 1.46D-04 BMatP= 2.15D-04
 IDIUse=3 WtCom= 9.96D-01 WtEn= 3.68D-03
 Coeff-Com:  0.198D-02-0.281D-02 0.414D-04-0.336D-03-0.523D-02 0.572D-02
 Coeff-Com:  0.483D-01 0.848D-01-0.292D+00-0.628D+00 0.435D+00 0.135D+01
 Coeff-En:   0.000D+00 0.000D+00 0.000D+00 0.000D+00 0.000D+00 0.000D+00
 Coeff-En:   0.000D+00 0.000D+00 0.000D+00 0.000D+00 0.000D+00 0.100D+01
 Coeff:      0.197D-02-0.280D-02 0.413D-04-0.335D-03-0.521D-02 0.570D-02
 Coeff:      0.481D-01 0.845D-01-0.291D+00-0.626D+00 0.433D+00 0.135D+01
 Gap=     0.251 Goal=   None    Shift=    0.000
 Gap=     0.343 Goal=   None    Shift=    0.000
 RMSDP=5.90D-05 MaxDP=2.67D-03 DE=-1.41D-04 OVMax= 1.31D-02

 Cycle  13  Pass 1  IDiag  1:
 RMSU=  1.16D-05    CP:  3.14D-01  2.64D+00  9.74D-01  5.84D-01  9.57D-01
                    CP:  1.09D+00  1.38D+00  1.70D+00  2.22D+00  2.63D+00
                    CP:  2.73D+00  2.24D+00
 FoFJK:  IHMeth= 1 ICntrl=     0 DoSepK=T KAlg= 1 I1Cent= 0 FoldK=F
 E= -2406.04268578648     Delta-E=       -0.000160603775 Rises=F Damp=F
 DIIS: error= 1.70D-04 at cycle  13 NSaved=  13.
 NSaved=13 IEnMin=13 EnMin= -2406.04268578648     IErMin=13 ErrMin= 1.70D-04
 ErrMax= 1.70D-04 EMaxC= 1.00D-01 BMatC= 3.13D-05 BMatP= 1.46D-04
 IDIUse=3 WtCom= 9.98D-01 WtEn= 1.70D-03
 Coeff-Com: -0.878D-04 0.126D-03 0.341D-04-0.810D-04-0.118D-03-0.318D-02
 Coeff-Com: -0.838D-02 0.350D-01-0.305D-02-0.244D+00-0.466D+00 0.399D+00
 Coeff-Com:  0.129D+01
 Coeff-En:   0.000D+00 0.000D+00 0.000D+00 0.000D+00 0.000D+00 0.000D+00
 Coeff-En:   0.000D+00 0.000D+00 0.000D+00 0.000D+00 0.000D+00 0.000D+00
 Coeff-En:   0.100D+01
 Coeff:     -0.877D-04 0.126D-03 0.340D-04-0.809D-04-0.118D-03-0.317D-02
 Coeff:     -0.836D-02 0.350D-01-0.304D-02-0.244D+00-0.466D+00 0.398D+00
 Coeff:      0.129D+01
 Gap=     0.252 Goal=   None    Shift=    0.000
 Gap=     0.344 Goal=   None    Shift=    0.000
 RMSDP=5.15D-05 MaxDP=2.36D-03 DE=-1.61D-04 OVMax= 1.10D-02

 Cycle  14  Pass 1  IDiag  1:
 RMSU=  1.73D-05    CP:  3.14D-01  2.63D+00  9.74D-01  5.84D-01  9.57D-01
                    CP:  1.09D+00  1.38D+00  1.74D+00  2.49D+00  3.00D+00
                    CP:  3.00D+00  3.00D+00  1.82D+00
 FoFJK:  IHMeth= 1 ICntrl=     0 DoSepK=T KAlg= 1 I1Cent= 0 FoldK=F
 E= -2406.04274894220     Delta-E=       -0.000063155720 Rises=F Damp=F
 DIIS: error= 4.65D-05 at cycle  14 NSaved=  14.
 NSaved=14 IEnMin=14 EnMin= -2406.04274894220     IErMin=14 ErrMin= 4.65D-05
 ErrMax= 4.65D-05 EMaxC= 1.00D-01 BMatC= 3.63D-06 BMatP= 3.13D-05
 IDIUse=1 WtCom= 1.00D+00 WtEn= 0.00D+00
 Coeff-Com: -0.191D-03 0.234D-03 0.593D-05 0.219D-04 0.603D-03 0.703D-03
 Coeff-Com: -0.502D-02-0.195D-01 0.158D-01 0.580D-01-0.791D-01-0.128D+00
 Coeff-Com:  0.209D+00 0.947D+00
 Coeff:     -0.191D-03 0.234D-03 0.593D-05 0.219D-04 0.603D-03 0.703D-03
 Coeff:     -0.502D-02-0.195D-01 0.158D-01 0.580D-01-0.791D-01-0.128D+00
 Coeff:      0.209D+00 0.947D+00
 Gap=     0.252 Goal=   None    Shift=    0.000
 Gap=     0.344 Goal=   None    Shift=    0.000
 RMSDP=1.09D-05 MaxDP=5.79D-04 DE=-6.32D-05 OVMax= 2.16D-03

 Cycle  15  Pass 1  IDiag  1:
 RMSU=  3.39D-06    CP:  3.14D-01  2.63D+00  9.74D-01  5.84D-01  9.57D-01
                    CP:  1.09D+00  1.39D+00  1.76D+00  2.54D+00  3.00D+00
                    CP:  3.00D+00  3.00D+00  2.07D+00  1.29D+00
 FoFJK:  IHMeth= 1 ICntrl=     0 DoSepK=T KAlg= 1 I1Cent= 0 FoldK=F
 E= -2406.04275360145     Delta-E=       -0.000004659254 Rises=F Damp=F
 DIIS: error= 4.04D-05 at cycle  15 NSaved=  15.
 NSaved=15 IEnMin=15 EnMin= -2406.04275360145     IErMin=15 ErrMin= 4.04D-05
 ErrMax= 4.04D-05 EMaxC= 1.00D-01 BMatC= 1.57D-06 BMatP= 3.63D-06
 IDIUse=1 WtCom= 1.00D+00 WtEn= 0.00D+00
 Coeff-Com: -0.160D-03 0.208D-03-0.239D-05 0.318D-04 0.445D-03 0.116D-02
 Coeff-Com:  0.181D-03-0.150D-01-0.391D-03 0.481D-01 0.479D-01-0.827D-01
 Coeff-Com: -0.120D+00 0.291D+00 0.830D+00
 Coeff:     -0.160D-03 0.208D-03-0.239D-05 0.318D-04 0.445D-03 0.116D-02
 Coeff:      0.181D-03-0.150D-01-0.391D-03 0.481D-01 0.479D-01-0.827D-01
 Coeff:     -0.120D+00 0.291D+00 0.830D+00
 Gap=     0.252 Goal=   None    Shift=    0.000
 Gap=     0.344 Goal=   None    Shift=    0.000
 RMSDP=4.47D-06 MaxDP=2.67D-04 DE=-4.66D-06 OVMax= 9.83D-04

 Cycle  16  Pass 1  IDiag  1:
 RMSU=  1.77D-06    CP:  3.14D-01  2.63D+00  9.74D-01  5.84D-01  9.57D-01
                    CP:  1.09D+00  1.39D+00  1.76D+00  2.56D+00  3.00D+00
                    CP:  3.00D+00  3.00D+00  2.16D+00  1.40D+00  1.45D+00
 FoFJK:  IHMeth= 1 ICntrl=     0 DoSepK=T KAlg= 1 I1Cent= 0 FoldK=F
 E= -2406.04275502404     Delta-E=       -0.000001422585 Rises=F Damp=F
 DIIS: error= 3.47D-05 at cycle  16 NSaved=  16.
 NSaved=16 IEnMin=16 EnMin= -2406.04275502404     IErMin=16 ErrMin= 3.47D-05
 ErrMax= 3.47D-05 EMaxC= 1.00D-01 BMatC= 7.81D-07 BMatP= 1.57D-06
 IDIUse=1 WtCom= 1.00D+00 WtEn= 0.00D+00
 Coeff-Com: -0.859D-04 0.133D-03 0.448D-05 0.181D-05 0.182D-03 0.361D-03
 Coeff-Com:  0.163D-02 0.210D-03-0.720D-02-0.123D-01 0.397D-01 0.403D-01
 Coeff-Com: -0.100D+00-0.336D+00 0.233D+00 0.114D+01
 Coeff:     -0.859D-04 0.133D-03 0.448D-05 0.181D-05 0.182D-03 0.361D-03
 Coeff:      0.163D-02 0.210D-03-0.720D-02-0.123D-01 0.397D-01 0.403D-01
 Coeff:     -0.100D+00-0.336D+00 0.233D+00 0.114D+01
 Gap=     0.252 Goal=   None    Shift=    0.000
 Gap=     0.344 Goal=   None    Shift=    0.000
 RMSDP=4.67D-06 MaxDP=3.76D-04 DE=-1.42D-06 OVMax= 1.32D-03

 Cycle  17  Pass 1  IDiag  1:
 RMSU=  1.17D-06    CP:  3.14D-01  2.63D+00  9.74D-01  5.84D-01  9.56D-01
                    CP:  1.09D+00  1.39D+00  1.76D+00  2.57D+00  3.00D+00
                    CP:  3.00D+00  3.00D+00  2.23D+00  1.52D+00  2.07D+00
                    CP:  1.94D+00
 FoFJK:  IHMeth= 1 ICntrl=     0 DoSepK=T KAlg= 1 I1Cent= 0 FoldK=F
 E= -2406.04275619583     Delta-E=       -0.000001171787 Rises=F Damp=F
 DIIS: error= 2.99D-05 at cycle  17 NSaved=  17.
 NSaved=17 IEnMin=17 EnMin= -2406.04275619583     IErMin=17 ErrMin= 2.99D-05
 ErrMax= 2.99D-05 EMaxC= 1.00D-01 BMatC= 2.00D-07 BMatP= 7.81D-07
 IDIUse=1 WtCom= 1.00D+00 WtEn= 0.00D+00
 Coeff-Com:  0.938D-05-0.122D-04-0.655D-06 0.271D-05-0.618D-04-0.310D-03
 Coeff-Com: -0.905D-04 0.574D-02 0.624D-03-0.210D-01-0.193D-01 0.369D-01
 Coeff-Com:  0.398D-01-0.169D+00-0.312D+00 0.207D+00 0.123D+01
 Coeff:      0.938D-05-0.122D-04-0.655D-06 0.271D-05-0.618D-04-0.310D-03
 Coeff:     -0.905D-04 0.574D-02 0.624D-03-0.210D-01-0.193D-01 0.369D-01
 Coeff:      0.398D-01-0.169D+00-0.312D+00 0.207D+00 0.123D+01
 Gap=     0.252 Goal=   None    Shift=    0.000
 Gap=     0.344 Goal=   None    Shift=    0.000
 RMSDP=4.15D-06 MaxDP=3.88D-04 DE=-1.17D-06 OVMax= 1.32D-03

 Cycle  18  Pass 1  IDiag  1:
 RMSU=  8.38D-07    CP:  3.14D-01  2.63D+00  9.74D-01  5.84D-01  9.56D-01
                    CP:  1.09D+00  1.39D+00  1.77D+00  2.57D+00  3.00D+00
                    CP:  3.00D+00  3.00D+00  2.28D+00  1.61D+00  2.58D+00
                    CP:  2.90D+00  1.94D+00
 FoFJK:  IHMeth= 1 ICntrl=     0 DoSepK=T KAlg= 1 I1Cent= 0 FoldK=F
 E= -2406.04275686342     Delta-E=       -0.000000667594 Rises=F Damp=F
 DIIS: error= 2.22D-05 at cycle  18 NSaved=  18.
 NSaved=18 IEnMin=18 EnMin= -2406.04275686342     IErMin=18 ErrMin= 2.22D-05
 ErrMax= 2.22D-05 EMaxC= 1.00D-01 BMatC= 9.63D-08 BMatP= 2.00D-07
 IDIUse=1 WtCom= 1.00D+00 WtEn= 0.00D+00
 Coeff-Com:  0.240D-04-0.394D-04-0.201D-05-0.615D-06-0.102D-03-0.232D-03
 Coeff-Com: -0.689D-03 0.192D-02 0.346D-02-0.109D-04-0.197D-01-0.925D-02
 Coeff-Com:  0.412D-01 0.807D-01-0.148D+00-0.307D+00 0.256D+00 0.110D+01
 Coeff:      0.240D-04-0.394D-04-0.201D-05-0.615D-06-0.102D-03-0.232D-03
 Coeff:     -0.689D-03 0.192D-02 0.346D-02-0.109D-04-0.197D-01-0.925D-02
 Coeff:      0.412D-01 0.807D-01-0.148D+00-0.307D+00 0.256D+00 0.110D+01
 Gap=     0.252 Goal=   None    Shift=    0.000
 Gap=     0.345 Goal=   None    Shift=    0.000
 RMSDP=2.61D-06 MaxDP=2.70D-04 DE=-6.68D-07 OVMax= 8.83D-04

 Cycle  19  Pass 1  IDiag  1:
 RMSU=  1.08D-06    CP:  3.14D-01  2.63D+00  9.74D-01  5.84D-01  9.57D-01
                    CP:  1.09D+00  1.39D+00  1.77D+00  2.58D+00  3.00D+00
                    CP:  3.00D+00  3.00D+00  2.31D+00  1.65D+00  2.85D+00
                    CP:  3.00D+00  2.67D+00  1.80D+00
 FoFJK:  IHMeth= 1 ICntrl=     0 DoSepK=T KAlg= 1 I1Cent= 0 FoldK=F
 E= -2406.04275713376     Delta-E=       -0.000000270343 Rises=F Damp=F
 DIIS: error= 1.46D-05 at cycle  19 NSaved=  19.
 NSaved=19 IEnMin=19 EnMin= -2406.04275713376     IErMin=19 ErrMin= 1.46D-05
 ErrMax= 1.46D-05 EMaxC= 1.00D-01 BMatC= 4.15D-08 BMatP= 9.63D-08
 IDIUse=1 WtCom= 1.00D+00 WtEn= 0.00D+00
 Coeff-Com:  0.160D-04-0.215D-04-0.260D-06-0.118D-05-0.416D-04-0.405D-05
 Coeff-Com: -0.128D-03-0.162D-02 0.143D-02 0.116D-01 0.744D-02-0.208D-01
 Coeff-Com: -0.182D-01 0.850D-01 0.119D+00-0.127D+00-0.581D+00 0.191D+00
 Coeff-Com:  0.133D+01
 Coeff:      0.160D-04-0.215D-04-0.260D-06-0.118D-05-0.416D-04-0.405D-05
 Coeff:     -0.128D-03-0.162D-02 0.143D-02 0.116D-01 0.744D-02-0.208D-01
 Coeff:     -0.182D-01 0.850D-01 0.119D+00-0.127D+00-0.581D+00 0.191D+00
 Coeff:      0.133D+01
 Gap=     0.252 Goal=   None    Shift=    0.000
 Gap=     0.345 Goal=   None    Shift=    0.000
 RMSDP=2.35D-06 MaxDP=2.70D-04 DE=-2.70D-07 OVMax= 8.59D-04

 Cycle  20  Pass 1  IDiag  1:
 Restarting incremental Fock formation.
 FoFJK:  IHMeth= 1 ICntrl=     0 DoSepK=T KAlg= 1 I1Cent= 0 FoldK=F
 E= -2406.04275729475     Delta-E=       -0.000000160985 Rises=F Damp=F
 DIIS: error= 7.96D-06 at cycle  20 NSaved=  20.
 NSaved=20 IEnMin=20 EnMin= -2406.04275729475     IErMin=20 ErrMin= 7.96D-06
 ErrMax= 7.96D-06 EMaxC= 1.00D-01 BMatC= 1.39D-08 BMatP= 4.15D-08
 IDIUse=1 WtCom= 1.00D+00 WtEn= 0.00D+00
 Coeff-Com:  0.218D-05-0.138D-05 0.149D-05-0.155D-05-0.527D-05-0.275D-04
 Coeff-Com:  0.291D-03-0.506D-03-0.688D-03 0.329D-04 0.725D-02 0.411D-02
 Coeff-Com: -0.182D-01-0.326D-01 0.719D-01 0.125D+00-0.147D+00-0.465D+00
 Coeff-Com:  0.491D-01 0.141D+01
 Coeff:      0.218D-05-0.138D-05 0.149D-05-0.155D-05-0.527D-05-0.275D-04
 Coeff:      0.291D-03-0.506D-03-0.688D-03 0.329D-04 0.725D-02 0.411D-02
 Coeff:     -0.182D-01-0.326D-01 0.719D-01 0.125D+00-0.147D+00-0.465D+00
 Coeff:      0.491D-01 0.141D+01
 Gap=     0.252 Goal=   None    Shift=    0.000
 Gap=     0.345 Goal=   None    Shift=    0.000
 RMSDP=1.66D-06 MaxDP=1.95D-04 DE=-1.61D-07 OVMax= 6.11D-04

 Cycle  21  Pass 1  IDiag  1:
 RMSU=  1.64D-06    CP:  1.00D+00
 FoFJK:  IHMeth= 1 ICntrl=     0 DoSepK=T KAlg= 1 I1Cent= 0 FoldK=F
 E= -2406.04275735131     Delta-E=       -0.000000056558 Rises=F Damp=F
 DIIS: error= 2.43D-06 at cycle  21 NSaved=  20.
 NSaved=20 IEnMin=20 EnMin= -2406.04275735131     IErMin=20 ErrMin= 2.43D-06
 ErrMax= 2.43D-06 EMaxC= 1.00D-01 BMatC= 4.41D-09 BMatP= 1.39D-08
 IDIUse=1 WtCom= 1.00D+00 WtEn= 0.00D+00
 Coeff-Com: -0.205D-05 0.307D-05-0.238D-06 0.127D-04-0.119D-05 0.151D-03
 Coeff-Com:  0.313D-04-0.646D-03-0.251D-02 0.903D-03 0.647D-02-0.163D-02
 Coeff-Com: -0.328D-01-0.551D-02 0.666D-01 0.969D-01-0.172D+00-0.371D+00
 Coeff-Com:  0.513D+00 0.902D+00
 Coeff:     -0.205D-05 0.307D-05-0.238D-06 0.127D-04-0.119D-05 0.151D-03
 Coeff:      0.313D-04-0.646D-03-0.251D-02 0.903D-03 0.647D-02-0.163D-02
 Coeff:     -0.328D-01-0.551D-02 0.666D-01 0.969D-01-0.172D+00-0.371D+00
 Coeff:      0.513D+00 0.902D+00
 Gap=     0.252 Goal=   None    Shift=    0.000
 Gap=     0.345 Goal=   None    Shift=    0.000
 RMSDP=5.89D-07 MaxDP=6.85D-05 DE=-5.66D-08 OVMax= 2.15D-04

 Cycle  22  Pass 1  IDiag  1:
 RMSU=  1.39D-07    CP:  1.00D+00  1.34D+00
 FoFJK:  IHMeth= 1 ICntrl=     0 DoSepK=T KAlg= 1 I1Cent= 0 FoldK=F
 E= -2406.04275736027     Delta-E=       -0.000000008966 Rises=F Damp=F
 DIIS: error= 9.85D-07 at cycle  22 NSaved=  20.
 NSaved=20 IEnMin=20 EnMin= -2406.04275736027     IErMin=20 ErrMin= 9.85D-07
 ErrMax= 9.85D-07 EMaxC= 1.00D-01 BMatC= 1.47D-09 BMatP= 4.41D-09
 IDIUse=1 WtCom= 1.00D+00 WtEn= 0.00D+00
 Coeff-Com: -0.172D-05 0.207D-05 0.658D-05 0.193D-04-0.334D-04 0.791D-04
 Coeff-Com: -0.281D-03-0.410D-03-0.154D-02 0.377D-04 0.570D-02 0.315D-02
 Coeff-Com: -0.227D-01-0.313D-01 0.577D-01 0.143D+00-0.116D+00-0.316D+00
 Coeff-Com:  0.164D+00 0.111D+01
 Coeff:     -0.172D-05 0.207D-05 0.658D-05 0.193D-04-0.334D-04 0.791D-04
 Coeff:     -0.281D-03-0.410D-03-0.154D-02 0.377D-04 0.570D-02 0.315D-02
 Coeff:     -0.227D-01-0.313D-01 0.577D-01 0.143D+00-0.116D+00-0.316D+00
 Coeff:      0.164D+00 0.111D+01
 Gap=     0.252 Goal=   None    Shift=    0.000
 Gap=     0.345 Goal=   None    Shift=    0.000
 RMSDP=2.80D-07 MaxDP=2.82D-05 DE=-8.97D-09 OVMax= 8.98D-05

 Cycle  23  Pass 1  IDiag  1:
 RMSU=  8.64D-08    CP:  1.00D+00  1.48D+00  1.79D+00
 FoFJK:  IHMeth= 1 ICntrl=     0 DoSepK=T KAlg= 1 I1Cent= 0 FoldK=F
 E= -2406.04275736263     Delta-E=       -0.000000002357 Rises=F Damp=F
 DIIS: error= 4.31D-07 at cycle  23 NSaved=  20.
 NSaved=20 IEnMin=20 EnMin= -2406.04275736263     IErMin=20 ErrMin= 4.31D-07
 ErrMax= 4.31D-07 EMaxC= 1.00D-01 BMatC= 3.71D-10 BMatP= 1.47D-09
 IDIUse=1 WtCom= 1.00D+00 WtEn= 0.00D+00
 Coeff-Com:  0.675D-07 0.400D-05 0.162D-04-0.481D-04-0.583D-04-0.317D-04
 Coeff-Com:  0.638D-03-0.479D-03-0.184D-02 0.210D-02 0.108D-01-0.317D-02
 Coeff-Com: -0.305D-01-0.140D-01 0.956D-01 0.541D-01-0.216D+00-0.183D+00
 Coeff-Com:  0.358D+00 0.928D+00
 Coeff:      0.675D-07 0.400D-05 0.162D-04-0.481D-04-0.583D-04-0.317D-04
 Coeff:      0.638D-03-0.479D-03-0.184D-02 0.210D-02 0.108D-01-0.317D-02
 Coeff:     -0.305D-01-0.140D-01 0.956D-01 0.541D-01-0.216D+00-0.183D+00
 Coeff:      0.358D+00 0.928D+00
 Gap=     0.252 Goal=   None    Shift=    0.000
 Gap=     0.345 Goal=   None    Shift=    0.000
 RMSDP=1.18D-07 MaxDP=9.16D-06 DE=-2.36D-09 OVMax= 2.99D-05

 Cycle  24  Pass 1  IDiag  1:
 RMSU=  3.99D-08    CP:  1.00D+00  1.52D+00  2.18D+00  1.44D+00
 FoFJK:  IHMeth= 1 ICntrl=     0 DoSepK=T KAlg= 1 I1Cent= 0 FoldK=F
 E= -2406.04275736324     Delta-E=       -0.000000000617 Rises=F Damp=F
 DIIS: error= 2.84D-07 at cycle  24 NSaved=  20.
 NSaved=20 IEnMin=20 EnMin= -2406.04275736324     IErMin=20 ErrMin= 2.84D-07
 ErrMax= 2.84D-07 EMaxC= 1.00D-01 BMatC= 1.01D-10 BMatP= 3.71D-10
 IDIUse=1 WtCom= 1.00D+00 WtEn= 0.00D+00
 Coeff-Com: -0.264D-06-0.190D-05-0.854D-06-0.422D-04 0.893D-04 0.313D-03
 Coeff-Com:  0.427D-03-0.476D-03-0.148D-02 0.168D-02 0.672D-02 0.253D-02
 Coeff-Com: -0.201D-01-0.259D-01 0.456D-01 0.652D-01-0.863D-01-0.319D+00
 Coeff-Com:  0.124D+00 0.121D+01
 Coeff:     -0.264D-06-0.190D-05-0.854D-06-0.422D-04 0.893D-04 0.313D-03
 Coeff:      0.427D-03-0.476D-03-0.148D-02 0.168D-02 0.672D-02 0.253D-02
 Coeff:     -0.201D-01-0.259D-01 0.456D-01 0.652D-01-0.863D-01-0.319D+00
 Coeff:      0.124D+00 0.121D+01
 Gap=     0.252 Goal=   None    Shift=    0.000
 Gap=     0.345 Goal=   None    Shift=    0.000
 RMSDP=8.15D-08 MaxDP=4.69D-06 DE=-6.17D-10 OVMax= 2.16D-05

 Cycle  25  Pass 1  IDiag  1:
 RMSU=  2.14D-08    CP:  1.00D+00  1.54D+00  2.45D+00  1.85D+00  1.78D+00
 FoFJK:  IHMeth= 1 ICntrl=     0 DoSepK=T KAlg= 1 I1Cent= 0 FoldK=F
 E= -2406.04275736352     Delta-E=       -0.000000000273 Rises=F Damp=F
 DIIS: error= 1.47D-07 at cycle  25 NSaved=  20.
 NSaved=20 IEnMin=20 EnMin= -2406.04275736352     IErMin=20 ErrMin= 1.47D-07
 ErrMax= 1.47D-07 EMaxC= 1.00D-01 BMatC= 2.38D-11 BMatP= 1.01D-10
 IDIUse=1 WtCom= 1.00D+00 WtEn= 0.00D+00
 Coeff-Com: -0.161D-05 0.137D-04-0.114D-04 0.114D-04-0.141D-03 0.127D-03
 Coeff-Com:  0.427D-03-0.612D-03-0.254D-02 0.603D-03 0.738D-02 0.498D-02
 Coeff-Com: -0.238D-01-0.183D-01 0.477D-01 0.639D-01-0.511D-01-0.296D+00
 Coeff-Com: -0.173D+00 0.144D+01
 Coeff:     -0.161D-05 0.137D-04-0.114D-04 0.114D-04-0.141D-03 0.127D-03
 Coeff:      0.427D-03-0.612D-03-0.254D-02 0.603D-03 0.738D-02 0.498D-02
 Coeff:     -0.238D-01-0.183D-01 0.477D-01 0.639D-01-0.511D-01-0.296D+00
 Coeff:     -0.173D+00 0.144D+01
 Gap=     0.252 Goal=   None    Shift=    0.000
 Gap=     0.345 Goal=   None    Shift=    0.000
 RMSDP=5.43D-08 MaxDP=3.34D-06 DE=-2.73D-10 OVMax= 1.59D-05

 Cycle  26  Pass 1  IDiag  1:
 RMSU=  1.38D-08    CP:  1.00D+00  1.55D+00  2.57D+00  2.04D+00  2.46D+00
                    CP:  1.79D+00
 FoFJK:  IHMeth= 1 ICntrl=     0 DoSepK=T KAlg= 1 I1Cent= 0 FoldK=F
 E= -2406.04275736358     Delta-E=       -0.000000000067 Rises=F Damp=F
 DIIS: error= 6.33D-08 at cycle  26 NSaved=  20.
 NSaved=20 IEnMin=20 EnMin= -2406.04275736358     IErMin=20 ErrMin= 6.33D-08
 ErrMax= 6.33D-08 EMaxC= 1.00D-01 BMatC= 4.71D-12 BMatP= 2.38D-11
 IDIUse=1 WtCom= 1.00D+00 WtEn= 0.00D+00
 Coeff-Com: -0.352D-05 0.491D-05 0.588D-05-0.325D-04-0.120D-03 0.465D-04
 Coeff-Com:  0.349D-03-0.677D-04-0.158D-02-0.126D-02 0.413D-02 0.689D-02
 Coeff-Com: -0.839D-02-0.174D-01 0.198D-01 0.743D-01-0.283D-01-0.274D+00
 Coeff-Com: -0.468D-01 0.127D+01
 Coeff:     -0.352D-05 0.491D-05 0.588D-05-0.325D-04-0.120D-03 0.465D-04
 Coeff:      0.349D-03-0.677D-04-0.158D-02-0.126D-02 0.413D-02 0.689D-02
 Coeff:     -0.839D-02-0.174D-01 0.198D-01 0.743D-01-0.283D-01-0.274D+00
 Coeff:     -0.468D-01 0.127D+01
 Gap=     0.252 Goal=   None    Shift=    0.000
 Gap=     0.345 Goal=   None    Shift=    0.000
 RMSDP=2.22D-08 MaxDP=1.20D-06 DE=-6.73D-11 OVMax= 6.51D-06

 Cycle  27  Pass 1  IDiag  1:
 RMSU=  4.89D-09    CP:  1.00D+00  1.55D+00  2.61D+00  2.11D+00  2.71D+00
                    CP:  2.19D+00  1.52D+00
 FoFJK:  IHMeth= 1 ICntrl=     0 DoSepK=T KAlg= 1 I1Cent= 0 FoldK=F
 E= -2406.04275736359     Delta-E=       -0.000000000005 Rises=F Damp=F
 DIIS: error= 3.19D-08 at cycle  27 NSaved=  20.
 NSaved=20 IEnMin=20 EnMin= -2406.04275736359     IErMin=20 ErrMin= 3.19D-08
 ErrMax= 3.19D-08 EMaxC= 1.00D-01 BMatC= 1.31D-12 BMatP= 4.71D-12
 IDIUse=1 WtCom= 1.00D+00 WtEn= 0.00D+00
 Coeff-Com:  0.571D-05-0.759D-05-0.183D-04-0.339D-04 0.293D-04 0.136D-03
 Coeff-Com: -0.489D-04-0.512D-03-0.474D-03 0.114D-02 0.301D-02-0.178D-02
 Coeff-Com: -0.717D-02 0.869D-03 0.254D-01 0.249D-01-0.616D-01-0.225D+00
 Coeff-Com:  0.443D+00 0.799D+00
 Coeff:      0.571D-05-0.759D-05-0.183D-04-0.339D-04 0.293D-04 0.136D-03
 Coeff:     -0.489D-04-0.512D-03-0.474D-03 0.114D-02 0.301D-02-0.178D-02
 Coeff:     -0.717D-02 0.869D-03 0.254D-01 0.249D-01-0.616D-01-0.225D+00
 Coeff:      0.443D+00 0.799D+00
 Gap=     0.252 Goal=   None    Shift=    0.000
 Gap=     0.345 Goal=   None    Shift=    0.000
 RMSDP=5.71D-09 MaxDP=3.71D-07 DE=-5.46D-12 OVMax= 1.56D-06

 SCF Done:  E(UwB97XD) =  -2406.04275736     A.U. after   27 cycles
             Convg  =    0.5711D-08             -V/T =  2.0030
 <Sx>= 0.0000 <Sy>= 0.0000 <Sz>= 2.0000 <S**2>= 6.0768 S= 2.0153
 <L.S>= 0.000000000000E+00
 KE= 2.398958588471D+03 PE=-8.956785031818D+03 EE= 2.527268134324D+03
 Annihilation of the first spin contaminant:
 S**2 before annihilation     6.0768,   after     6.0008
 Leave Link  502 at Thu Jun  1 22:12:02 2017, MaxMem=   33554432 cpu:    4319.5
 (Enter /share/apps/gaussian09/g09/l801.exe)
 Range of M.O.s used for correlation:     1   306
 NBasis=   306 NAE=    74 NBE=    70 NFC=     0 NFV=     0
 NROrb=    306 NOA=    74 NOB=    70 NVA=   232 NVB=   236

 **** Warning!!: The largest alpha MO coefficient is  0.16241119D+02


 **** Warning!!: The largest beta MO coefficient is  0.16205122D+02

 Leave Link  801 at Thu Jun  1 22:12:02 2017, MaxMem=   33554432 cpu:       0.3
 (Enter /share/apps/gaussian09/g09/l1101.exe)
 Using compressed storage, NAtomX=    22.
 Will process  23 centers per pass.
 PrsmSu:  requested number of processors reduced to:   8 ShMem   1 Linda.
 PrsmSu:  requested number of processors reduced to:   5 ShMem   1 Linda.
 R6Disp: Adding dispersion energy 1st derivatives to the gradient.
 Leave Link 1101 at Thu Jun  1 22:12:02 2017, MaxMem=   33554432 cpu:       4.8
 (Enter /share/apps/gaussian09/g09/l1102.exe)
 Symmetrizing basis deriv contribution to polar:
 IMax=3 JMax=2 DiffMx= 0.00D+00
 Leave Link 1102 at Thu Jun  1 22:12:03 2017, MaxMem=   33554432 cpu:       0.8
 (Enter /share/apps/gaussian09/g09/l1110.exe)
 Forming Gx(P) for the SCF density, NAtomX=    22.
 Integral derivatives from FoFDir/FoFCou, PRISM(SPDF).
 Do as many integral derivatives as possible in FoFDir.
 G2DrvN: MDV=      33554152.
 G2DrvN: will do     1 centers at a time, making   23 passes doing MaxLOS=3.
 Estimated number of processors is:    7
 G2DrvN:  IPasSy=1 do centers    0 through    0.
 Calling FoFCou, ICntrl=  3107 FMM=F I1Cent=   0 AccDes= 0.00D+00.
 FoFJK:  IHMeth= 1 ICntrl=  3107 DoSepK=T KAlg= 1 I1Cent= 0 FoldK=F
 FoFCou: FMM=F IPFlag=           0 FMFlag=      100000 FMFlg1=           0
         NFxFlg=           0 DoJE=F BraDBF=F KetDBF=F FulRan=T
         Omega=  0.000000  0.000000  1.000000  0.000000  0.000000 ICntrl=    3507 IOpCl=  0
         NMat0=    1 NMatS0=    1 NMatT0=    0 NMatD0=    1 NMtDS0=    0 NMtDT0=    0
         I1Cent=           0 NGrid=           0.
 Symmetry not used in FoFCou.
 CoulSu:  requested number of processors reduced to:   8 ShMem   1 Linda.
 CoulSu:  requested number of processors reduced to:   8 ShMem   1 Linda.
 G2DrvN:  IPasSy=1 do centers    1 through    1.
 Calling FoFCou, ICntrl=  3107 FMM=F I1Cent=   0 AccDes= 0.00D+00.
 FoFJK:  IHMeth= 1 ICntrl=  3107 DoSepK=T KAlg= 1 I1Cent= 0 FoldK=F
 CoulSu:  requested number of processors reduced to:   8 ShMem   1 Linda.
 CoulSu:  requested number of processors reduced to:   7 ShMem   1 Linda.
 G2DrvN:  IPasSy=1 do centers    2 through    2.
 Calling FoFCou, ICntrl=  3107 FMM=F I1Cent=   0 AccDes= 0.00D+00.
 FoFJK:  IHMeth= 1 ICntrl=  3107 DoSepK=T KAlg= 1 I1Cent= 0 FoldK=F
 CoulSu:  requested number of processors reduced to:   8 ShMem   1 Linda.
 CoulSu:  requested number of processors reduced to:   7 ShMem   1 Linda.
 G2DrvN:  IPasSy=1 do centers    3 through    3.
 Calling FoFCou, ICntrl=  3107 FMM=F I1Cent=   0 AccDes= 0.00D+00.
 FoFJK:  IHMeth= 1 ICntrl=  3107 DoSepK=T KAlg= 1 I1Cent= 0 FoldK=F
 CoulSu:  requested number of processors reduced to:   8 ShMem   1 Linda.
 CoulSu:  requested number of processors reduced to:   7 ShMem   1 Linda.
 G2DrvN:  IPasSy=1 do centers    4 through    4.
 Calling FoFCou, ICntrl=  3107 FMM=F I1Cent=   0 AccDes= 0.00D+00.
 FoFJK:  IHMeth= 1 ICntrl=  3107 DoSepK=T KAlg= 1 I1Cent= 0 FoldK=F
 CoulSu:  requested number of processors reduced to:   8 ShMem   1 Linda.
 CoulSu:  requested number of processors reduced to:   7 ShMem   1 Linda.
 G2DrvN:  IPasSy=1 do centers    5 through    5.
 Calling FoFCou, ICntrl=  3107 FMM=F I1Cent=   0 AccDes= 0.00D+00.
 FoFJK:  IHMeth= 1 ICntrl=  3107 DoSepK=T KAlg= 1 I1Cent= 0 FoldK=F
 CoulSu:  requested number of processors reduced to:   8 ShMem   1 Linda.
 CoulSu:  requested number of processors reduced to:   7 ShMem   1 Linda.
 G2DrvN:  IPasSy=1 do centers    6 through    6.
 Calling FoFCou, ICntrl=  3107 FMM=F I1Cent=   0 AccDes= 0.00D+00.
 FoFJK:  IHMeth= 1 ICntrl=  3107 DoSepK=T KAlg= 1 I1Cent= 0 FoldK=F
 CoulSu:  requested number of processors reduced to:   8 ShMem   1 Linda.
 CoulSu:  requested number of processors reduced to:   7 ShMem   1 Linda.
 G2DrvN:  IPasSy=1 do centers    7 through    7.
 Calling FoFCou, ICntrl=  3107 FMM=F I1Cent=   0 AccDes= 0.00D+00.
 FoFJK:  IHMeth= 1 ICntrl=  3107 DoSepK=T KAlg= 1 I1Cent= 0 FoldK=F
 CoulSu:  requested number of processors reduced to:   8 ShMem   1 Linda.
 CoulSu:  requested number of processors reduced to:   7 ShMem   1 Linda.
 G2DrvN:  IPasSy=1 do centers    8 through    8.
 Calling FoFCou, ICntrl=  3107 FMM=F I1Cent=   0 AccDes= 0.00D+00.
 FoFJK:  IHMeth= 1 ICntrl=  3107 DoSepK=T KAlg= 1 I1Cent= 0 FoldK=F
 CoulSu:  requested number of processors reduced to:   8 ShMem   1 Linda.
 CoulSu:  requested number of processors reduced to:   7 ShMem   1 Linda.
 G2DrvN:  IPasSy=1 do centers    9 through    9.
 Calling FoFCou, ICntrl=  3107 FMM=F I1Cent=   0 AccDes= 0.00D+00.
 FoFJK:  IHMeth= 1 ICntrl=  3107 DoSepK=T KAlg= 1 I1Cent= 0 FoldK=F
 CoulSu:  requested number of processors reduced to:   8 ShMem   1 Linda.
 CoulSu:  requested number of processors reduced to:   7 ShMem   1 Linda.
 G2DrvN:  IPasSy=1 do centers   10 through   10.
 Calling FoFCou, ICntrl=  3107 FMM=F I1Cent=   0 AccDes= 0.00D+00.
 FoFJK:  IHMeth= 1 ICntrl=  3107 DoSepK=T KAlg= 1 I1Cent= 0 FoldK=F
 CoulSu:  requested number of processors reduced to:   8 ShMem   1 Linda.
 CoulSu:  requested number of processors reduced to:   7 ShMem   1 Linda.
 G2DrvN:  IPasSy=1 do centers   11 through   11.
 Calling FoFCou, ICntrl=  3107 FMM=F I1Cent=   0 AccDes= 0.00D+00.
 FoFJK:  IHMeth= 1 ICntrl=  3107 DoSepK=T KAlg= 1 I1Cent= 0 FoldK=F
 CoulSu:  requested number of processors reduced to:   8 ShMem   1 Linda.
 CoulSu:  requested number of processors reduced to:   7 ShMem   1 Linda.
 G2DrvN:  IPasSy=1 do centers   12 through   12.
 Calling FoFCou, ICntrl=  3107 FMM=F I1Cent=   0 AccDes= 0.00D+00.
 FoFJK:  IHMeth= 1 ICntrl=  3107 DoSepK=T KAlg= 1 I1Cent= 0 FoldK=F
 CoulSu:  requested number of processors reduced to:   8 ShMem   1 Linda.
 CoulSu:  requested number of processors reduced to:   7 ShMem   1 Linda.
 G2DrvN:  IPasSy=1 do centers   13 through   13.
 Calling FoFCou, ICntrl=  3107 FMM=F I1Cent=   0 AccDes= 0.00D+00.
 FoFJK:  IHMeth= 1 ICntrl=  3107 DoSepK=T KAlg= 1 I1Cent= 0 FoldK=F
 CoulSu:  requested number of processors reduced to:   8 ShMem   1 Linda.
 CoulSu:  requested number of processors reduced to:   7 ShMem   1 Linda.
 G2DrvN:  IPasSy=1 do centers   14 through   14.
 Calling FoFCou, ICntrl=  3107 FMM=F I1Cent=   0 AccDes= 0.00D+00.
 FoFJK:  IHMeth= 1 ICntrl=  3107 DoSepK=T KAlg= 1 I1Cent= 0 FoldK=F
 CoulSu:  requested number of processors reduced to:   8 ShMem   1 Linda.
 CoulSu:  requested number of processors reduced to:   7 ShMem   1 Linda.
 G2DrvN:  IPasSy=1 do centers   15 through   15.
 Calling FoFCou, ICntrl=  3107 FMM=F I1Cent=   0 AccDes= 0.00D+00.
 FoFJK:  IHMeth= 1 ICntrl=  3107 DoSepK=T KAlg= 1 I1Cent= 0 FoldK=F
 CoulSu:  requested number of processors reduced to:   8 ShMem   1 Linda.
 CoulSu:  requested number of processors reduced to:   7 ShMem   1 Linda.
 G2DrvN:  IPasSy=1 do centers   16 through   16.
 Calling FoFCou, ICntrl=  3107 FMM=F I1Cent=   0 AccDes= 0.00D+00.
 FoFJK:  IHMeth= 1 ICntrl=  3107 DoSepK=T KAlg= 1 I1Cent= 0 FoldK=F
 CoulSu:  requested number of processors reduced to:   8 ShMem   1 Linda.
 CoulSu:  requested number of processors reduced to:   7 ShMem   1 Linda.
 G2DrvN:  IPasSy=1 do centers   17 through   17.
 Calling FoFCou, ICntrl=  3107 FMM=F I1Cent=   0 AccDes= 0.00D+00.
 FoFJK:  IHMeth= 1 ICntrl=  3107 DoSepK=T KAlg= 1 I1Cent= 0 FoldK=F
 CoulSu:  requested number of processors reduced to:   8 ShMem   1 Linda.
 CoulSu:  requested number of processors reduced to:   7 ShMem   1 Linda.
 G2DrvN:  IPasSy=1 do centers   18 through   18.
 Calling FoFCou, ICntrl=  3107 FMM=F I1Cent=   0 AccDes= 0.00D+00.
 FoFJK:  IHMeth= 1 ICntrl=  3107 DoSepK=T KAlg= 1 I1Cent= 0 FoldK=F
 CoulSu:  requested number of processors reduced to:   8 ShMem   1 Linda.
 CoulSu:  requested number of processors reduced to:   7 ShMem   1 Linda.
 G2DrvN:  IPasSy=1 do centers   19 through   19.
 Calling FoFCou, ICntrl=  3107 FMM=F I1Cent=   0 AccDes= 0.00D+00.
 FoFJK:  IHMeth= 1 ICntrl=  3107 DoSepK=T KAlg= 1 I1Cent= 0 FoldK=F
 CoulSu:  requested number of processors reduced to:   8 ShMem   1 Linda.
 CoulSu:  requested number of processors reduced to:   7 ShMem   1 Linda.
 G2DrvN:  IPasSy=1 do centers   20 through   20.
 Calling FoFCou, ICntrl=  3107 FMM=F I1Cent=   0 AccDes= 0.00D+00.
 FoFJK:  IHMeth= 1 ICntrl=  3107 DoSepK=T KAlg= 1 I1Cent= 0 FoldK=F
 CoulSu:  requested number of processors reduced to:   8 ShMem   1 Linda.
 CoulSu:  requested number of processors reduced to:   7 ShMem   1 Linda.
 G2DrvN:  IPasSy=1 do centers   21 through   21.
 Calling FoFCou, ICntrl=  3107 FMM=F I1Cent=   0 AccDes= 0.00D+00.
 FoFJK:  IHMeth= 1 ICntrl=  3107 DoSepK=T KAlg= 1 I1Cent= 0 FoldK=F
 CoulSu:  requested number of processors reduced to:   8 ShMem   1 Linda.
 CoulSu:  requested number of processors reduced to:   7 ShMem   1 Linda.
 G2DrvN:  IPasSy=1 do centers   22 through   22.
 Calling FoFCou, ICntrl=  3107 FMM=F I1Cent=   0 AccDes= 0.00D+00.
 FoFJK:  IHMeth= 1 ICntrl=  3107 DoSepK=T KAlg= 1 I1Cent= 0 FoldK=F
 CoulSu:  requested number of processors reduced to:   8 ShMem   1 Linda.
 CoulSu:  requested number of processors reduced to:   7 ShMem   1 Linda.
 FoFDir/FoFCou used for L=0 through L=3.
 End of G2Drv Frequency-dependent properties file   721 does not exist.
 End of G2Drv Frequency-dependent properties file   722 does not exist.
 Leave Link 1110 at Thu Jun  1 22:19:31 2017, MaxMem=   33554432 cpu:    3990.3
 (Enter /share/apps/gaussian09/g09/l1002.exe)
 Minotr:  UHF open shell wavefunction.
          IDoAtm=1111111111111111111111
          Direct CPHF calculation.
          Differentiating once with respect to electric field.
                with respect to dipole field.
          Differentiating once with respect to nuclear coordinates.
          Requested convergence is 1.0D-08 RMS, and 1.0D-07 maximum.
          Secondary convergence is 1.0D-12 RMS, and 1.0D-12 maximum.
          NewPWx=T KeepS1=F KeepF1=F KeepIn=T MapXYZ=F SortEE=F KeepMc=T.
          MDV=      33554208 using IRadAn=       2.
 Generate precomputed XC quadrature information.
          Solving linear equations simultaneously, MaxMat=       0.
 FoF2E skips out because all densities are zero.
 CalDSu exits because no D1Ps are significant.
 FoFJK:  IHMeth= 1 ICntrl=     0 DoSepK=T KAlg= 1 I1Cent= 0 FoldK=F
 FoFCou: FMM=F IPFlag=           0 FMFlag=      100000 FMFlg1=           0
         NFxFlg=           0 DoJE=T BraDBF=F KetDBF=F FulRan=T
         Omega=  0.000000  0.000000  1.000000  0.000000  0.000000 ICntrl=     500 IOpCl=  0
         NMat0=    3 NMatS0=    3 NMatT0=    0 NMatD0=    3 NMtDS0=    0 NMtDT0=    0
         I1Cent=           0 NGrid=           0.
 Symmetry not used in FoFCou.
 FoFJK:  IHMeth= 1 ICntrl=     0 DoSepK=T KAlg= 1 I1Cent= 0 FoldK=F
 FoFJK:  IHMeth= 1 ICntrl=     0 DoSepK=T KAlg= 1 I1Cent= 0 FoldK=F
 FoFJK:  IHMeth= 1 ICntrl=     0 DoSepK=T KAlg= 1 I1Cent= 0 FoldK=F
 FoFJK:  IHMeth= 1 ICntrl=     0 DoSepK=T KAlg= 1 I1Cent= 0 FoldK=F
 FoFJK:  IHMeth= 1 ICntrl=     0 DoSepK=T KAlg= 1 I1Cent= 0 FoldK=F
 FoFJK:  IHMeth= 1 ICntrl=     0 DoSepK=T KAlg= 1 I1Cent= 0 FoldK=F
 FoFJK:  IHMeth= 1 ICntrl=     0 DoSepK=T KAlg= 1 I1Cent= 0 FoldK=F
 FoFJK:  IHMeth= 1 ICntrl=     0 DoSepK=T KAlg= 1 I1Cent= 0 FoldK=F
 FoFJK:  IHMeth= 1 ICntrl=     0 DoSepK=T KAlg= 1 I1Cent= 0 FoldK=F
 FoFJK:  IHMeth= 1 ICntrl=     0 DoSepK=T KAlg= 1 I1Cent= 0 FoldK=F
 FoFJK:  IHMeth= 1 ICntrl=     0 DoSepK=T KAlg= 1 I1Cent= 0 FoldK=F
 FoFJK:  IHMeth= 1 ICntrl=     0 DoSepK=T KAlg= 1 I1Cent= 0 FoldK=F
 FoFJK:  IHMeth= 1 ICntrl=     0 DoSepK=T KAlg= 1 I1Cent= 0 FoldK=F
 FoFJK:  IHMeth= 1 ICntrl=     0 DoSepK=T KAlg= 1 I1Cent= 0 FoldK=F
 FoFJK:  IHMeth= 1 ICntrl=     0 DoSepK=T KAlg= 1 I1Cent= 0 FoldK=F
 FoFJK:  IHMeth= 1 ICntrl=     0 DoSepK=T KAlg= 1 I1Cent= 0 FoldK=F
 FoFJK:  IHMeth= 1 ICntrl=     0 DoSepK=T KAlg= 1 I1Cent= 0 FoldK=F
 FoFJK:  IHMeth= 1 ICntrl=     0 DoSepK=T KAlg= 1 I1Cent= 0 FoldK=F
 FoFJK:  IHMeth= 1 ICntrl=     0 DoSepK=T KAlg= 1 I1Cent= 0 FoldK=F
 FoFJK:  IHMeth= 1 ICntrl=     0 DoSepK=T KAlg= 1 I1Cent= 0 FoldK=F
 FoFJK:  IHMeth= 1 ICntrl=     0 DoSepK=T KAlg= 1 I1Cent= 0 FoldK=F
          There are    69 degrees of freedom in the 1st order CPHF.  IDoFFX=5.
     69 vectors produced by pass  0 Test12= 4.88D-14 1.45D-09 XBig12= 9.42D+01 2.72D+00.
 AX will form     3 AO Fock derivatives at one time.
 FoFJK:  IHMeth= 1 ICntrl=     0 DoSepK=T KAlg= 1 I1Cent= 0 FoldK=F
 FoFJK:  IHMeth= 1 ICntrl=     0 DoSepK=T KAlg= 1 I1Cent= 0 FoldK=F
 FoFJK:  IHMeth= 1 ICntrl=     0 DoSepK=T KAlg= 1 I1Cent= 0 FoldK=F
 FoFJK:  IHMeth= 1 ICntrl=     0 DoSepK=T KAlg= 1 I1Cent= 0 FoldK=F
 FoFJK:  IHMeth= 1 ICntrl=     0 DoSepK=T KAlg= 1 I1Cent= 0 FoldK=F
 FoFJK:  IHMeth= 1 ICntrl=     0 DoSepK=T KAlg= 1 I1Cent= 0 FoldK=F
 FoFJK:  IHMeth= 1 ICntrl=     0 DoSepK=T KAlg= 1 I1Cent= 0 FoldK=F
 FoFJK:  IHMeth= 1 ICntrl=     0 DoSepK=T KAlg= 1 I1Cent= 0 FoldK=F
 FoFJK:  IHMeth= 1 ICntrl=     0 DoSepK=T KAlg= 1 I1Cent= 0 FoldK=F
 FoFJK:  IHMeth= 1 ICntrl=     0 DoSepK=T KAlg= 1 I1Cent= 0 FoldK=F
 FoFJK:  IHMeth= 1 ICntrl=     0 DoSepK=T KAlg= 1 I1Cent= 0 FoldK=F
 FoFJK:  IHMeth= 1 ICntrl=     0 DoSepK=T KAlg= 1 I1Cent= 0 FoldK=F
 FoFJK:  IHMeth= 1 ICntrl=     0 DoSepK=T KAlg= 1 I1Cent= 0 FoldK=F
 FoFJK:  IHMeth= 1 ICntrl=     0 DoSepK=T KAlg= 1 I1Cent= 0 FoldK=F
 FoFJK:  IHMeth= 1 ICntrl=     0 DoSepK=T KAlg= 1 I1Cent= 0 FoldK=F
 FoFJK:  IHMeth= 1 ICntrl=     0 DoSepK=T KAlg= 1 I1Cent= 0 FoldK=F
 FoFJK:  IHMeth= 1 ICntrl=     0 DoSepK=T KAlg= 1 I1Cent= 0 FoldK=F
 FoFJK:  IHMeth= 1 ICntrl=     0 DoSepK=T KAlg= 1 I1Cent= 0 FoldK=F
 FoFJK:  IHMeth= 1 ICntrl=     0 DoSepK=T KAlg= 1 I1Cent= 0 FoldK=F
 FoFJK:  IHMeth= 1 ICntrl=     0 DoSepK=T KAlg= 1 I1Cent= 0 FoldK=F
 FoFJK:  IHMeth= 1 ICntrl=     0 DoSepK=T KAlg= 1 I1Cent= 0 FoldK=F
 FoFJK:  IHMeth= 1 ICntrl=     0 DoSepK=T KAlg= 1 I1Cent= 0 FoldK=F
 FoFJK:  IHMeth= 1 ICntrl=     0 DoSepK=T KAlg= 1 I1Cent= 0 FoldK=F
     69 vectors produced by pass  1 Test12= 4.88D-14 1.45D-09 XBig12= 2.02D+01 1.09D+00.
 FoFJK:  IHMeth= 1 ICntrl=     0 DoSepK=T KAlg= 1 I1Cent= 0 FoldK=F
 FoFJK:  IHMeth= 1 ICntrl=     0 DoSepK=T KAlg= 1 I1Cent= 0 FoldK=F
 FoFJK:  IHMeth= 1 ICntrl=     0 DoSepK=T KAlg= 1 I1Cent= 0 FoldK=F
 FoFJK:  IHMeth= 1 ICntrl=     0 DoSepK=T KAlg= 1 I1Cent= 0 FoldK=F
 FoFJK:  IHMeth= 1 ICntrl=     0 DoSepK=T KAlg= 1 I1Cent= 0 FoldK=F
 FoFJK:  IHMeth= 1 ICntrl=     0 DoSepK=T KAlg= 1 I1Cent= 0 FoldK=F
 FoFJK:  IHMeth= 1 ICntrl=     0 DoSepK=T KAlg= 1 I1Cent= 0 FoldK=F
 FoFJK:  IHMeth= 1 ICntrl=     0 DoSepK=T KAlg= 1 I1Cent= 0 FoldK=F
 FoFJK:  IHMeth= 1 ICntrl=     0 DoSepK=T KAlg= 1 I1Cent= 0 FoldK=F
 FoFJK:  IHMeth= 1 ICntrl=     0 DoSepK=T KAlg= 1 I1Cent= 0 FoldK=F
 FoFJK:  IHMeth= 1 ICntrl=     0 DoSepK=T KAlg= 1 I1Cent= 0 FoldK=F
 FoFJK:  IHMeth= 1 ICntrl=     0 DoSepK=T KAlg= 1 I1Cent= 0 FoldK=F
 FoFJK:  IHMeth= 1 ICntrl=     0 DoSepK=T KAlg= 1 I1Cent= 0 FoldK=F
 FoFJK:  IHMeth= 1 ICntrl=     0 DoSepK=T KAlg= 1 I1Cent= 0 FoldK=F
 FoFJK:  IHMeth= 1 ICntrl=     0 DoSepK=T KAlg= 1 I1Cent= 0 FoldK=F
 FoFJK:  IHMeth= 1 ICntrl=     0 DoSepK=T KAlg= 1 I1Cent= 0 FoldK=F
 FoFJK:  IHMeth= 1 ICntrl=     0 DoSepK=T KAlg= 1 I1Cent= 0 FoldK=F
 FoFJK:  IHMeth= 1 ICntrl=     0 DoSepK=T KAlg= 1 I1Cent= 0 FoldK=F
 FoFJK:  IHMeth= 1 ICntrl=     0 DoSepK=T KAlg= 1 I1Cent= 0 FoldK=F
 FoFJK:  IHMeth= 1 ICntrl=     0 DoSepK=T KAlg= 1 I1Cent= 0 FoldK=F
 FoFJK:  IHMeth= 1 ICntrl=     0 DoSepK=T KAlg= 1 I1Cent= 0 FoldK=F
 FoFJK:  IHMeth= 1 ICntrl=     0 DoSepK=T KAlg= 1 I1Cent= 0 FoldK=F
 FoFJK:  IHMeth= 1 ICntrl=     0 DoSepK=T KAlg= 1 I1Cent= 0 FoldK=F
     69 vectors produced by pass  2 Test12= 4.88D-14 1.45D-09 XBig12= 2.42D+00 2.77D-01.
 FoFJK:  IHMeth= 1 ICntrl=     0 DoSepK=T KAlg= 1 I1Cent= 0 FoldK=F
 FoFJK:  IHMeth= 1 ICntrl=     0 DoSepK=T KAlg= 1 I1Cent= 0 FoldK=F
 FoFJK:  IHMeth= 1 ICntrl=     0 DoSepK=T KAlg= 1 I1Cent= 0 FoldK=F
 FoFJK:  IHMeth= 1 ICntrl=     0 DoSepK=T KAlg= 1 I1Cent= 0 FoldK=F
 FoFJK:  IHMeth= 1 ICntrl=     0 DoSepK=T KAlg= 1 I1Cent= 0 FoldK=F
 FoFJK:  IHMeth= 1 ICntrl=     0 DoSepK=T KAlg= 1 I1Cent= 0 FoldK=F
 FoFJK:  IHMeth= 1 ICntrl=     0 DoSepK=T KAlg= 1 I1Cent= 0 FoldK=F
 FoFJK:  IHMeth= 1 ICntrl=     0 DoSepK=T KAlg= 1 I1Cent= 0 FoldK=F
 FoFJK:  IHMeth= 1 ICntrl=     0 DoSepK=T KAlg= 1 I1Cent= 0 FoldK=F
 FoFJK:  IHMeth= 1 ICntrl=     0 DoSepK=T KAlg= 1 I1Cent= 0 FoldK=F
 FoFJK:  IHMeth= 1 ICntrl=     0 DoSepK=T KAlg= 1 I1Cent= 0 FoldK=F
 FoFJK:  IHMeth= 1 ICntrl=     0 DoSepK=T KAlg= 1 I1Cent= 0 FoldK=F
 FoFJK:  IHMeth= 1 ICntrl=     0 DoSepK=T KAlg= 1 I1Cent= 0 FoldK=F
 FoFJK:  IHMeth= 1 ICntrl=     0 DoSepK=T KAlg= 1 I1Cent= 0 FoldK=F
 FoFJK:  IHMeth= 1 ICntrl=     0 DoSepK=T KAlg= 1 I1Cent= 0 FoldK=F
 FoFJK:  IHMeth= 1 ICntrl=     0 DoSepK=T KAlg= 1 I1Cent= 0 FoldK=F
 FoFJK:  IHMeth= 1 ICntrl=     0 DoSepK=T KAlg= 1 I1Cent= 0 FoldK=F
 FoFJK:  IHMeth= 1 ICntrl=     0 DoSepK=T KAlg= 1 I1Cent= 0 FoldK=F
 FoFJK:  IHMeth= 1 ICntrl=     0 DoSepK=T KAlg= 1 I1Cent= 0 FoldK=F
 FoFJK:  IHMeth= 1 ICntrl=     0 DoSepK=T KAlg= 1 I1Cent= 0 FoldK=F
 FoFJK:  IHMeth= 1 ICntrl=     0 DoSepK=T KAlg= 1 I1Cent= 0 FoldK=F
 FoFJK:  IHMeth= 1 ICntrl=     0 DoSepK=T KAlg= 1 I1Cent= 0 FoldK=F
 FoFJK:  IHMeth= 1 ICntrl=     0 DoSepK=T KAlg= 1 I1Cent= 0 FoldK=F
     66 vectors produced by pass  3 Test12= 4.88D-14 1.45D-09 XBig12= 6.94D-02 3.76D-02.
 FoFJK:  IHMeth= 1 ICntrl=     0 DoSepK=T KAlg= 1 I1Cent= 0 FoldK=F
 FoFJK:  IHMeth= 1 ICntrl=     0 DoSepK=T KAlg= 1 I1Cent= 0 FoldK=F
 FoFJK:  IHMeth= 1 ICntrl=     0 DoSepK=T KAlg= 1 I1Cent= 0 FoldK=F
 FoFJK:  IHMeth= 1 ICntrl=     0 DoSepK=T KAlg= 1 I1Cent= 0 FoldK=F
 FoFJK:  IHMeth= 1 ICntrl=     0 DoSepK=T KAlg= 1 I1Cent= 0 FoldK=F
 FoFJK:  IHMeth= 1 ICntrl=     0 DoSepK=T KAlg= 1 I1Cent= 0 FoldK=F
 FoFJK:  IHMeth= 1 ICntrl=     0 DoSepK=T KAlg= 1 I1Cent= 0 FoldK=F
 FoFJK:  IHMeth= 1 ICntrl=     0 DoSepK=T KAlg= 1 I1Cent= 0 FoldK=F
 FoFJK:  IHMeth= 1 ICntrl=     0 DoSepK=T KAlg= 1 I1Cent= 0 FoldK=F
 FoFJK:  IHMeth= 1 ICntrl=     0 DoSepK=T KAlg= 1 I1Cent= 0 FoldK=F
 FoFJK:  IHMeth= 1 ICntrl=     0 DoSepK=T KAlg= 1 I1Cent= 0 FoldK=F
 FoFJK:  IHMeth= 1 ICntrl=     0 DoSepK=T KAlg= 1 I1Cent= 0 FoldK=F
 FoFJK:  IHMeth= 1 ICntrl=     0 DoSepK=T KAlg= 1 I1Cent= 0 FoldK=F
 FoFJK:  IHMeth= 1 ICntrl=     0 DoSepK=T KAlg= 1 I1Cent= 0 FoldK=F
 FoFJK:  IHMeth= 1 ICntrl=     0 DoSepK=T KAlg= 1 I1Cent= 0 FoldK=F
 FoFJK:  IHMeth= 1 ICntrl=     0 DoSepK=T KAlg= 1 I1Cent= 0 FoldK=F
 FoFJK:  IHMeth= 1 ICntrl=     0 DoSepK=T KAlg= 1 I1Cent= 0 FoldK=F
 FoFJK:  IHMeth= 1 ICntrl=     0 DoSepK=T KAlg= 1 I1Cent= 0 FoldK=F
 FoFJK:  IHMeth= 1 ICntrl=     0 DoSepK=T KAlg= 1 I1Cent= 0 FoldK=F
 FoFJK:  IHMeth= 1 ICntrl=     0 DoSepK=T KAlg= 1 I1Cent= 0 FoldK=F
 FoFJK:  IHMeth= 1 ICntrl=     0 DoSepK=T KAlg= 1 I1Cent= 0 FoldK=F
 FoFJK:  IHMeth= 1 ICntrl=     0 DoSepK=T KAlg= 1 I1Cent= 0 FoldK=F
     66 vectors produced by pass  4 Test12= 4.88D-14 1.45D-09 XBig12= 1.12D-03 3.69D-03.
 FoFJK:  IHMeth= 1 ICntrl=     0 DoSepK=T KAlg= 1 I1Cent= 0 FoldK=F
 FoFJK:  IHMeth= 1 ICntrl=     0 DoSepK=T KAlg= 1 I1Cent= 0 FoldK=F
 FoFJK:  IHMeth= 1 ICntrl=     0 DoSepK=T KAlg= 1 I1Cent= 0 FoldK=F
 FoFJK:  IHMeth= 1 ICntrl=     0 DoSepK=T KAlg= 1 I1Cent= 0 FoldK=F
 FoFJK:  IHMeth= 1 ICntrl=     0 DoSepK=T KAlg= 1 I1Cent= 0 FoldK=F
 FoFJK:  IHMeth= 1 ICntrl=     0 DoSepK=T KAlg= 1 I1Cent= 0 FoldK=F
 FoFJK:  IHMeth= 1 ICntrl=     0 DoSepK=T KAlg= 1 I1Cent= 0 FoldK=F
 FoFJK:  IHMeth= 1 ICntrl=     0 DoSepK=T KAlg= 1 I1Cent= 0 FoldK=F
 FoFJK:  IHMeth= 1 ICntrl=     0 DoSepK=T KAlg= 1 I1Cent= 0 FoldK=F
 FoFJK:  IHMeth= 1 ICntrl=     0 DoSepK=T KAlg= 1 I1Cent= 0 FoldK=F
 FoFJK:  IHMeth= 1 ICntrl=     0 DoSepK=T KAlg= 1 I1Cent= 0 FoldK=F
 FoFJK:  IHMeth= 1 ICntrl=     0 DoSepK=T KAlg= 1 I1Cent= 0 FoldK=F
 FoFJK:  IHMeth= 1 ICntrl=     0 DoSepK=T KAlg= 1 I1Cent= 0 FoldK=F
 FoFJK:  IHMeth= 1 ICntrl=     0 DoSepK=T KAlg= 1 I1Cent= 0 FoldK=F
 FoFJK:  IHMeth= 1 ICntrl=     0 DoSepK=T KAlg= 1 I1Cent= 0 FoldK=F
 FoFJK:  IHMeth= 1 ICntrl=     0 DoSepK=T KAlg= 1 I1Cent= 0 FoldK=F
 FoFJK:  IHMeth= 1 ICntrl=     0 DoSepK=T KAlg= 1 I1Cent= 0 FoldK=F
 FoFJK:  IHMeth= 1 ICntrl=     0 DoSepK=T KAlg= 1 I1Cent= 0 FoldK=F
 FoFJK:  IHMeth= 1 ICntrl=     0 DoSepK=T KAlg= 1 I1Cent= 0 FoldK=F
 FoFJK:  IHMeth= 1 ICntrl=     0 DoSepK=T KAlg= 1 I1Cent= 0 FoldK=F
 FoFJK:  IHMeth= 1 ICntrl=     0 DoSepK=T KAlg= 1 I1Cent= 0 FoldK=F
 FoFJK:  IHMeth= 1 ICntrl=     0 DoSepK=T KAlg= 1 I1Cent= 0 FoldK=F
     66 vectors produced by pass  5 Test12= 4.88D-14 1.45D-09 XBig12= 1.60D-05 5.23D-04.
 FoFJK:  IHMeth= 1 ICntrl=     0 DoSepK=T KAlg= 1 I1Cent= 0 FoldK=F
 FoFJK:  IHMeth= 1 ICntrl=     0 DoSepK=T KAlg= 1 I1Cent= 0 FoldK=F
 FoFJK:  IHMeth= 1 ICntrl=     0 DoSepK=T KAlg= 1 I1Cent= 0 FoldK=F
 FoFJK:  IHMeth= 1 ICntrl=     0 DoSepK=T KAlg= 1 I1Cent= 0 FoldK=F
 FoFJK:  IHMeth= 1 ICntrl=     0 DoSepK=T KAlg= 1 I1Cent= 0 FoldK=F
 FoFJK:  IHMeth= 1 ICntrl=     0 DoSepK=T KAlg= 1 I1Cent= 0 FoldK=F
 FoFJK:  IHMeth= 1 ICntrl=     0 DoSepK=T KAlg= 1 I1Cent= 0 FoldK=F
 FoFJK:  IHMeth= 1 ICntrl=     0 DoSepK=T KAlg= 1 I1Cent= 0 FoldK=F
 FoFJK:  IHMeth= 1 ICntrl=     0 DoSepK=T KAlg= 1 I1Cent= 0 FoldK=F
 FoFJK:  IHMeth= 1 ICntrl=     0 DoSepK=T KAlg= 1 I1Cent= 0 FoldK=F
 FoFJK:  IHMeth= 1 ICntrl=     0 DoSepK=T KAlg= 1 I1Cent= 0 FoldK=F
 FoFJK:  IHMeth= 1 ICntrl=     0 DoSepK=T KAlg= 1 I1Cent= 0 FoldK=F
 FoFJK:  IHMeth= 1 ICntrl=     0 DoSepK=T KAlg= 1 I1Cent= 0 FoldK=F
 FoFJK:  IHMeth= 1 ICntrl=     0 DoSepK=T KAlg= 1 I1Cent= 0 FoldK=F
 FoFJK:  IHMeth= 1 ICntrl=     0 DoSepK=T KAlg= 1 I1Cent= 0 FoldK=F
 FoFJK:  IHMeth= 1 ICntrl=     0 DoSepK=T KAlg= 1 I1Cent= 0 FoldK=F
 FoFJK:  IHMeth= 1 ICntrl=     0 DoSepK=T KAlg= 1 I1Cent= 0 FoldK=F
 FoFJK:  IHMeth= 1 ICntrl=     0 DoSepK=T KAlg= 1 I1Cent= 0 FoldK=F
 FoFJK:  IHMeth= 1 ICntrl=     0 DoSepK=T KAlg= 1 I1Cent= 0 FoldK=F
 FoFJK:  IHMeth= 1 ICntrl=     0 DoSepK=T KAlg= 1 I1Cent= 0 FoldK=F
 FoFJK:  IHMeth= 1 ICntrl=     0 DoSepK=T KAlg= 1 I1Cent= 0 FoldK=F
 FoFJK:  IHMeth= 1 ICntrl=     0 DoSepK=T KAlg= 1 I1Cent= 0 FoldK=F
     66 vectors produced by pass  6 Test12= 4.88D-14 1.45D-09 XBig12= 1.81D-07 5.01D-05.
 FoFJK:  IHMeth= 1 ICntrl=     0 DoSepK=T KAlg= 1 I1Cent= 0 FoldK=F
 FoFJK:  IHMeth= 1 ICntrl=     0 DoSepK=T KAlg= 1 I1Cent= 0 FoldK=F
 FoFJK:  IHMeth= 1 ICntrl=     0 DoSepK=T KAlg= 1 I1Cent= 0 FoldK=F
 FoFJK:  IHMeth= 1 ICntrl=     0 DoSepK=T KAlg= 1 I1Cent= 0 FoldK=F
 FoFJK:  IHMeth= 1 ICntrl=     0 DoSepK=T KAlg= 1 I1Cent= 0 FoldK=F
 FoFJK:  IHMeth= 1 ICntrl=     0 DoSepK=T KAlg= 1 I1Cent= 0 FoldK=F
 FoFJK:  IHMeth= 1 ICntrl=     0 DoSepK=T KAlg= 1 I1Cent= 0 FoldK=F
 FoFJK:  IHMeth= 1 ICntrl=     0 DoSepK=T KAlg= 1 I1Cent= 0 FoldK=F
 FoFJK:  IHMeth= 1 ICntrl=     0 DoSepK=T KAlg= 1 I1Cent= 0 FoldK=F
 FoFJK:  IHMeth= 1 ICntrl=     0 DoSepK=T KAlg= 1 I1Cent= 0 FoldK=F
 FoFJK:  IHMeth= 1 ICntrl=     0 DoSepK=T KAlg= 1 I1Cent= 0 FoldK=F
 FoFJK:  IHMeth= 1 ICntrl=     0 DoSepK=T KAlg= 1 I1Cent= 0 FoldK=F
 FoFJK:  IHMeth= 1 ICntrl=     0 DoSepK=T KAlg= 1 I1Cent= 0 FoldK=F
 FoFJK:  IHMeth= 1 ICntrl=     0 DoSepK=T KAlg= 1 I1Cent= 0 FoldK=F
 FoFJK:  IHMeth= 1 ICntrl=     0 DoSepK=T KAlg= 1 I1Cent= 0 FoldK=F
 FoFJK:  IHMeth= 1 ICntrl=     0 DoSepK=T KAlg= 1 I1Cent= 0 FoldK=F
 FoFJK:  IHMeth= 1 ICntrl=     0 DoSepK=T KAlg= 1 I1Cent= 0 FoldK=F
 FoFJK:  IHMeth= 1 ICntrl=     0 DoSepK=T KAlg= 1 I1Cent= 0 FoldK=F
 FoFJK:  IHMeth= 1 ICntrl=     0 DoSepK=T KAlg= 1 I1Cent= 0 FoldK=F
 FoFJK:  IHMeth= 1 ICntrl=     0 DoSepK=T KAlg= 1 I1Cent= 0 FoldK=F
 FoFJK:  IHMeth= 1 ICntrl=     0 DoSepK=T KAlg= 1 I1Cent= 0 FoldK=F
 FoFJK:  IHMeth= 1 ICntrl=     0 DoSepK=T KAlg= 1 I1Cent= 0 FoldK=F
     54 vectors produced by pass  7 Test12= 4.88D-14 1.45D-09 XBig12= 1.94D-09 4.98D-06.
 FoFJK:  IHMeth= 1 ICntrl=     0 DoSepK=T KAlg= 1 I1Cent= 0 FoldK=F
 FoFJK:  IHMeth= 1 ICntrl=     0 DoSepK=T KAlg= 1 I1Cent= 0 FoldK=F
 FoFJK:  IHMeth= 1 ICntrl=     0 DoSepK=T KAlg= 1 I1Cent= 0 FoldK=F
 FoFJK:  IHMeth= 1 ICntrl=     0 DoSepK=T KAlg= 1 I1Cent= 0 FoldK=F
 FoFJK:  IHMeth= 1 ICntrl=     0 DoSepK=T KAlg= 1 I1Cent= 0 FoldK=F
 FoFJK:  IHMeth= 1 ICntrl=     0 DoSepK=T KAlg= 1 I1Cent= 0 FoldK=F
 FoFJK:  IHMeth= 1 ICntrl=     0 DoSepK=T KAlg= 1 I1Cent= 0 FoldK=F
 FoFJK:  IHMeth= 1 ICntrl=     0 DoSepK=T KAlg= 1 I1Cent= 0 FoldK=F
 FoFJK:  IHMeth= 1 ICntrl=     0 DoSepK=T KAlg= 1 I1Cent= 0 FoldK=F
 FoFJK:  IHMeth= 1 ICntrl=     0 DoSepK=T KAlg= 1 I1Cent= 0 FoldK=F
 FoFJK:  IHMeth= 1 ICntrl=     0 DoSepK=T KAlg= 1 I1Cent= 0 FoldK=F
 FoFJK:  IHMeth= 1 ICntrl=     0 DoSepK=T KAlg= 1 I1Cent= 0 FoldK=F
 FoFJK:  IHMeth= 1 ICntrl=     0 DoSepK=T KAlg= 1 I1Cent= 0 FoldK=F
 FoFJK:  IHMeth= 1 ICntrl=     0 DoSepK=T KAlg= 1 I1Cent= 0 FoldK=F
 FoFJK:  IHMeth= 1 ICntrl=     0 DoSepK=T KAlg= 1 I1Cent= 0 FoldK=F
 FoFJK:  IHMeth= 1 ICntrl=     0 DoSepK=T KAlg= 1 I1Cent= 0 FoldK=F
 FoFJK:  IHMeth= 1 ICntrl=     0 DoSepK=T KAlg= 1 I1Cent= 0 FoldK=F
 FoFJK:  IHMeth= 1 ICntrl=     0 DoSepK=T KAlg= 1 I1Cent= 0 FoldK=F
     22 vectors produced by pass  8 Test12= 4.88D-14 1.45D-09 XBig12= 1.99D-11 4.43D-07.
 FoFJK:  IHMeth= 1 ICntrl=     0 DoSepK=T KAlg= 1 I1Cent= 0 FoldK=F
 FoFJK:  IHMeth= 1 ICntrl=     0 DoSepK=T KAlg= 1 I1Cent= 0 FoldK=F
 FoFJK:  IHMeth= 1 ICntrl=     0 DoSepK=T KAlg= 1 I1Cent= 0 FoldK=F
 FoFJK:  IHMeth= 1 ICntrl=     0 DoSepK=T KAlg= 1 I1Cent= 0 FoldK=F
 FoFJK:  IHMeth= 1 ICntrl=     0 DoSepK=T KAlg= 1 I1Cent= 0 FoldK=F
 FoFJK:  IHMeth= 1 ICntrl=     0 DoSepK=T KAlg= 1 I1Cent= 0 FoldK=F
 FoFJK:  IHMeth= 1 ICntrl=     0 DoSepK=T KAlg= 1 I1Cent= 0 FoldK=F
 FoFJK:  IHMeth= 1 ICntrl=     0 DoSepK=T KAlg= 1 I1Cent= 0 FoldK=F
      4 vectors produced by pass  9 Test12= 4.88D-14 1.45D-09 XBig12= 1.95D-13 3.30D-08.
 FoFJK:  IHMeth= 1 ICntrl=     0 DoSepK=T KAlg= 1 I1Cent= 0 FoldK=F
 FoFJK:  IHMeth= 1 ICntrl=     0 DoSepK=T KAlg= 1 I1Cent= 0 FoldK=F
      3 vectors produced by pass 10 Test12= 4.88D-14 1.45D-09 XBig12= 2.10D-15 4.31D-09.
 FoFJK:  IHMeth= 1 ICntrl=     0 DoSepK=T KAlg= 1 I1Cent= 0 FoldK=F
 Inverted reduced A of dimension   554 with in-core refinement.
 FullF1:  Do perturbations    1 to     3.
 FoFJK:  IHMeth= 1 ICntrl=     0 DoSepK=T KAlg= 1 I1Cent= 0 FoldK=F
 Isotropic polarizability for W=    0.000000      114.54 Bohr**3.
 End of Minotr Frequency-dependent properties file   721 does not exist.
 End of Minotr Frequency-dependent properties file   722 does not exist.
 Leave Link 1002 at Thu Jun  1 23:21:29 2017, MaxMem=   33554432 cpu:   44608.4
 (Enter /share/apps/gaussian09/g09/l601.exe)
 Copying SCF densities to generalized density rwf, IOpCl= 1 IROHF=0.

 **********************************************************************

            Population analysis using the SCF density.

 **********************************************************************

 Alpha  occ. eigenvalues -- -216.01381 -66.42413 -66.42389 -24.94454 -24.83050
 Alpha  occ. eigenvalues --  -24.83026 -24.82910 -24.82833 -21.21376 -21.21336
 Alpha  occ. eigenvalues --  -21.20928 -19.29244 -19.27648 -19.27604 -10.30369
 Alpha  occ. eigenvalues --  -10.30211 -10.29770 -10.29724  -5.51863  -5.51839
 Alpha  occ. eigenvalues --   -3.86524  -3.86500  -3.86429  -3.86406  -3.86326
 Alpha  occ. eigenvalues --   -3.86301  -3.11783  -2.06530  -2.06341  -2.05510
 Alpha  occ. eigenvalues --   -1.31483  -1.31375  -1.29428  -1.29400  -1.14618
 Alpha  occ. eigenvalues --   -1.09256  -1.09198  -0.91890  -0.83236  -0.74470
 Alpha  occ. eigenvalues --   -0.70689  -0.68122  -0.64849  -0.60948  -0.59627
 Alpha  occ. eigenvalues --   -0.59464  -0.58572  -0.57999  -0.57318  -0.54878
 Alpha  occ. eigenvalues --   -0.54263  -0.53982  -0.53611  -0.53138  -0.53045
 Alpha  occ. eigenvalues --   -0.52325  -0.52073  -0.51780  -0.51280  -0.50924
 Alpha  occ. eigenvalues --   -0.50244  -0.48582  -0.48268  -0.47341  -0.46506
 Alpha  occ. eigenvalues --   -0.46115  -0.45708  -0.44573  -0.43631  -0.39901
 Alpha  occ. eigenvalues --   -0.38642  -0.38097  -0.37706  -0.29471
 Alpha virt. eigenvalues --   -0.04266  -0.04238   0.00283   0.07723   0.09753
 Alpha virt. eigenvalues --    0.10393   0.12363   0.13051   0.13708   0.14097
 Alpha virt. eigenvalues --    0.14935   0.15470   0.16573   0.17184   0.17931
 Alpha virt. eigenvalues --    0.18431   0.19311   0.19568   0.20222   0.20452
 Alpha virt. eigenvalues --    0.21389   0.22464   0.22734   0.23289   0.24090
 Alpha virt. eigenvalues --    0.25466   0.26783   0.27437   0.29314   0.29949
 Alpha virt. eigenvalues --    0.31562   0.31987   0.33241   0.33989   0.34261
 Alpha virt. eigenvalues --    0.35106   0.35711   0.36193   0.36768   0.37216
 Alpha virt. eigenvalues --    0.38471   0.39834   0.40276   0.42572   0.43758
 Alpha virt. eigenvalues --    0.45440   0.46640   0.48295   0.48805   0.50318
 Alpha virt. eigenvalues --    0.50683   0.51796   0.51910   0.52793   0.53169
 Alpha virt. eigenvalues --    0.53795   0.54730   0.55411   0.57086   0.58035
 Alpha virt. eigenvalues --    0.58340   0.59497   0.60177   0.61501   0.63003
 Alpha virt. eigenvalues --    0.64216   0.64940   0.66595   0.67530   0.69134
 Alpha virt. eigenvalues --    0.71316   0.72155   0.74718   0.75591   0.75858
 Alpha virt. eigenvalues --    0.76570   0.78971   0.79917   0.83134   0.83864
 Alpha virt. eigenvalues --    0.84655   0.90513   0.91122   0.91469   0.94241
 Alpha virt. eigenvalues --    0.95876   1.02205   1.02596   1.05178   1.10726
 Alpha virt. eigenvalues --    1.23834   1.25963   1.28993   1.31277   1.32296
 Alpha virt. eigenvalues --    1.33316   1.34192   1.34474   1.35163   1.35865
 Alpha virt. eigenvalues --    1.36209   1.38033   1.39348   1.39497   1.40047
 Alpha virt. eigenvalues --    1.41003   1.41436   1.41657   1.42597   1.44103
 Alpha virt. eigenvalues --    1.45094   1.45247   1.46429   1.48124   1.48843
 Alpha virt. eigenvalues --    1.50304   1.51708   1.52495   1.53438   1.54735
 Alpha virt. eigenvalues --    1.55696   1.57039   1.58498   1.59990   1.62315
 Alpha virt. eigenvalues --    1.63579   1.64054   1.65889   1.67257   1.69038
 Alpha virt. eigenvalues --    1.71141   1.75212   1.76798   1.80687   1.82153
 Alpha virt. eigenvalues --    1.83373   1.85448   1.86030   1.88641   1.89022
 Alpha virt. eigenvalues --    1.89486   1.91329   1.96341   1.96841   1.98229
 Alpha virt. eigenvalues --    2.00575   2.02112   2.03942   2.08567   2.09416
 Alpha virt. eigenvalues --    2.12823   2.15259   2.17192   2.19325   2.22284
 Alpha virt. eigenvalues --    2.24890   2.27491   2.28772   2.32272   2.33170
 Alpha virt. eigenvalues --    2.33842   2.36257   2.41967   2.45318   2.48935
 Alpha virt. eigenvalues --    2.50846   2.55542   2.58891   2.59982   2.61682
 Alpha virt. eigenvalues --    2.64106   2.66019   2.66445   2.66850   2.69281
 Alpha virt. eigenvalues --    2.70355   2.71692   2.72869   2.73264   2.74299
 Alpha virt. eigenvalues --    2.75626   2.77047   2.79910   2.79958   2.80660
 Alpha virt. eigenvalues --    2.82178   2.82281   2.82967   2.84118   2.84887
 Alpha virt. eigenvalues --    2.85461   2.85964   2.86896   2.87215   2.89261
 Alpha virt. eigenvalues --    2.90416   2.92576   2.93687   2.96353   3.00198
 Alpha virt. eigenvalues --    3.05454   3.08130   3.08249   3.09019   3.10116
 Alpha virt. eigenvalues --    3.17054   3.21885   3.23224   3.24444   3.27268
 Alpha virt. eigenvalues --    3.31983   3.34544   3.35252   3.38547   3.39339
 Alpha virt. eigenvalues --    3.43978   3.45140   3.46166   3.48958   3.51927
 Alpha virt. eigenvalues --    3.53408   3.83005   3.85556  10.05863  10.17682
 Alpha virt. eigenvalues --   21.96359  22.11380  22.20027  22.23613  43.41874
 Alpha virt. eigenvalues --   43.58263  43.63249
  Beta  occ. eigenvalues -- -216.01297 -66.42407 -66.42383 -24.89724 -24.83047
  Beta  occ. eigenvalues --  -24.83023 -24.82912 -24.82834 -21.17711 -21.17687
  Beta  occ. eigenvalues --  -21.16236 -19.29240 -19.27601 -19.27555 -10.30660
  Beta  occ. eigenvalues --  -10.30138 -10.29825 -10.28616  -5.51855  -5.51831
  Beta  occ. eigenvalues --   -3.86517  -3.86493  -3.86422  -3.86399  -3.86315
  Beta  occ. eigenvalues --   -3.86289  -2.98554  -1.93153  -1.92914  -1.89612
[...]
 .00003100,-0.00024356,-0.00016598,-0.00005987,-0.00015761,0.00003949,-
 0.00003134,-0.00022773,0.00009972,0.00015151,-0.00024971,0.02682819,-0
 .14959762,0.06979093,-0.00935089,0.42401082,0.00051520,-0.00922447,0.0
 0306346,0.00259076,0.00293918,-0.00475752,-0.00397839,0.00159815,-0.00
 184337,0.00050737,0.00094754,-0.00109241,0.00053164,-0.00221237,0.0026
 1529,-0.00066368,-0.00491020,0.00160877,-0.00028483,0.00046268,-0.0000
 7316,-0.00024446,0.00018544,-0.00046815,0.00008723,0.00041038,-0.00045
 188,0.00027905,0.00164638,0.00084402,-0.00476500,0.04431398,-0.0937711
 2,-0.02746016,-0.01401924,0.53561523,-0.00753244,-0.00378138,-0.005286
 29,0.00043768,-0.00033080,0.00197171,0.00088817,-0.00010827,0.00047230
 ,0.00051527,-0.00028402,-0.00007905,-0.00022099,0.00071355,0.00042918,
 -0.00054614,0.00090948,-0.00074113,-0.00002130,-0.00025758,-0.00019407
 ,0.00004286,-0.00007903,-0.00001648,0.00004207,-0.00006499,0.00016997,
 0.00004972,-0.00023961,0.00003841,-0.28355714,0.02280099,-0.05215063,-
 0.00639087,-0.00061922,-0.00229082,0.30873125,-0.00875382,0.00050002,0
 .00212225,0.00215430,0.00156502,-0.00272459,-0.00246363,-0.00072587,-0
 .00246702,-0.00010103,0.00060912,-0.00047651,0.00101030,-0.00240450,0.
 00160035,0.00003199,-0.00149853,0.00143101,-0.00004939,0.00074897,0.00
 012475,-0.00030487,0.00019388,-0.00035848,0.00003649,0.00006390,-0.000
 32521,0.00010314,0.00044734,-0.00009732,-0.00222144,-0.03572138,0.0050
 9640,0.03012946,-0.00125669,0.00791343,-0.01908424,0.04002970,-0.00713
 123,-0.00262102,-0.00054586,0.00194558,0.00156224,-0.00158566,-0.00157
 173,-0.00038249,-0.00110281,0.00025395,0.00016950,-0.00039505,0.000613
 48,-0.00080272,0.00122921,-0.00073180,-0.00076812,0.00059306,-0.000169
 82,0.00019380,-0.00007861,-0.00019661,0.00004316,-0.00026216,0.0001007
 9,0.00003519,-0.00015591,0.00025795,0.00028366,0.00000817,-0.06810779,
 0.01336336,-0.05696208,-0.01537662,0.00142540,-0.00275196,0.06373912,-
 0.01402513,0.05552709,0.00145046,0.00039837,0.00281728,0.00067083,-0.0
 0002945,-0.00175808,-0.00212706,0.00131575,-0.00116929,0.00002683,0.00
 030023,-0.00025745,0.00058950,-0.00114598,0.00057627,-0.00009491,-0.00
 092685,0.00066642,-0.00009511,0.00036117,0.00008144,-0.00015972,0.0000
 7670,-0.00013212,0.00000912,0.00007160,-0.00020993,0.00012155,0.000262
 30,0.00000564,-0.11660264,-0.00650627,0.10903745,0.00398458,0.00154619
 ,-0.00419756,-0.01466599,0.00020067,0.02606348,0.12532486,0.00791494,0
 .00022821,-0.00433661,0.00031739,-0.00062956,-0.00349533,-0.00352256,0
 .00162342,-0.00071822,-0.00024011,0.00065196,-0.00045198,0.00093531,-0
 .00165881,0.00117850,0.00030003,-0.00238827,0.00197879,-0.00014563,0.0
 0050624,-0.00000201,-0.00025433,0.00008269,-0.00023846,-0.00001031,0.0
 0016784,-0.00050025,0.00010933,0.00072583,0.00002121,0.00562496,-0.036
 34264,0.00035059,-0.01629864,-0.00165399,0.02622930,-0.00031939,0.0007
 1570,-0.00036990,0.00367678,0.04007906,0.00496885,-0.00418757,-0.00954
 985,0.00018470,-0.00035002,-0.00081430,-0.00138148,0.00088995,0.001045
 84,-0.00062684,-0.00004102,0.00001789,0.00078537,-0.00004415,-0.000473
 53,0.00050433,-0.00012400,0.00122671,-0.00018046,0.00008449,0.00016532
 ,-0.00011810,-0.00001885,0.00003396,-0.00004204,-0.00002994,-0.0002626
 6,0.00000597,-0.00002017,-0.00024241,0.12483788,0.02311997,-0.22354485
 ,0.00880650,0.00014846,-0.01358307,-0.00542133,-0.00041358,0.00685980,
 -0.13042728,-0.02171267,0.23783028,-0.00073274,0.00108015,-0.00033873,
 -0.00020703,0.00032070,0.00078217,0.00077931,-0.00102356,0.00014941,0.
 00061353,-0.00018761,-0.00014643,-0.00021411,0.00144465,0.00079714,-0.
 00076946,-0.00005031,-0.00088422,-0.00033654,-0.00044847,-0.00043083,0
 .00003661,-0.00011458,-0.00004912,0.00008029,-0.00000913,0.00012535,-0
 .00003223,0.00003978,0.00037218,0.00293623,0.00429383,0.00371014,-0.08
 447116,-0.01552008,-0.00788772,0.00050750,0.00028248,0.00042159,0.0000
 9665,-0.00054327,-0.00025619,0.50662713,0.00035217,-0.00324782,0.00054
 605,0.00009714,0.00093063,-0.00028970,-0.00043396,0.00101604,-0.000144
 78,-0.00000017,0.00045508,0.00031263,-0.00052918,-0.00124623,-0.000265
 30,0.00050452,-0.00098576,-0.00047239,0.00036898,0.00029329,0.00025798
 ,0.00010606,0.00013487,0.00004479,-0.00008301,0.00010773,0.00010133,-0
 .00017223,0.00017539,0.00033351,-0.00415942,-0.03479310,-0.00943147,-0
 .02231369,-0.13694052,-0.04829557,-0.00066744,0.00191257,-0.00033453,0
 .00033932,0.00211940,-0.00069813,-0.01530634,0.46753989,-0.00021751,0.
 00261871,-0.00204209,-0.00109734,-0.00140449,0.00234669,0.00205683,-0.
 00068612,0.00111725,-0.00022979,-0.00058698,0.00027638,-0.00022787,0.0
 0128247,-0.00138255,-0.00004330,0.00205031,-0.00061813,0.00013754,-0.0
 0028058,0.00010927,0.00014589,-0.00007982,0.00024802,-0.00001071,-0.00
 012765,0.00023545,-0.00003898,-0.00053304,-0.00028164,0.00443493,0.011
 71800,0.00804092,-0.00733336,-0.04370273,-0.10827116,0.00013755,-0.000
 30425,0.00029999,-0.00016025,0.00130017,0.00095677,-0.04047271,-0.0184
 9420,0.54302559,-0.00008202,-0.00044361,0.00032772,-0.00037876,0.00066
 215,-0.00020607,0.00029798,-0.00007128,-0.00040398,0.00053980,0.000848
 24,0.00021033,-0.00126791,-0.00043275,0.00091713,0.00122831,-0.0016602
 2,-0.00068948,0.00028401,-0.00006167,-0.00041044,0.00015625,0.00002445
 ,-0.00006932,-0.00017454,0.00014482,0.00010405,-0.00084439,0.00031465,
 0.00036934,0.00383884,-0.00010079,-0.00673271,-0.12204745,-0.00207378,
 0.11585039,0.00051177,-0.00067555,-0.00008646,0.00099882,0.00159750,-0
 .00134443,0.00388534,-0.00050610,-0.00789321,0.12660598,-0.00110846,-0
 .00052749,0.00343635,0.00047388,0.00148145,-0.00081904,-0.00009086,0.0
 0013449,-0.00055846,0.00061811,0.00007393,0.00004407,-0.00051707,-0.00
 015284,0.00048267,-0.00068856,-0.00161255,-0.00151417,0.00013439,-0.00
 006363,-0.00005376,0.00005938,0.00000017,-0.00008005,0.00003223,0.0001
 2021,0.00013753,0.00015080,0.00010127,0.00061767,-0.01566637,-0.003339
 26,0.02361934,-0.00220602,-0.04569872,0.00517218,0.00032585,0.00071932
 ,-0.00087423,0.00117318,-0.00522853,0.00327213,0.01371186,-0.00171264,
 -0.02587629,0.00359877,0.05919501,0.00008686,0.00053402,-0.00120112,-0
 .00014646,-0.00076122,-0.00005530,0.00040118,-0.00019811,0.00034700,0.
 00005123,-0.00002952,-0.00014775,0.00003319,0.00044325,-0.00020414,-0.
 00042251,-0.00096729,0.00093000,0.00006475,-0.00009619,0.00000007,0.00
 002319,-0.00003734,0.00004398,-0.00000575,0.00016769,-0.00000237,0.000
 41458,0.00068572,-0.00075323,0.00723002,0.00172464,-0.01139368,0.11449
 830,0.00499400,-0.23976444,-0.00018830,-0.00029244,0.00010451,-0.00067
 591,0.00278568,-0.00047016,0.00915439,-0.00188547,-0.01701428,-0.12540
 568,-0.00431406,0.26071598,-0.00097327,0.00059951,-0.00056047,0.000299
 70,0.00003689,0.00032622,0.00011722,-0.00094854,0.00010753,0.00025851,
 -0.00055770,-0.00038766,0.00110503,0.00071309,0.00027660,-0.00117221,0
 .00030942,-0.00013691,-0.00155071,-0.00034065,-0.00053340,-0.00014098,
 -0.00004847,-0.00003537,0.00012761,-0.00002931,-0.00000142,0.00024350,
 0.00004826,0.00017171,-0.00305798,0.00108121,-0.00036537,-0.30108095,0
 .01167953,-0.05700751,0.00127540,0.00053103,-0.00029522,0.00054748,0.0
 0020055,-0.00032503,-0.00630712,0.00056158,-0.00036707,-0.01503872,0.0
 0061187,-0.00388085,0.32400088,0.00299688,-0.00039918,0.00176287,-0.00
 024999,0.00011375,-0.00050228,-0.00088203,0.00123809,-0.00019340,-0.00
 046455,0.00005577,0.00029859,-0.00044845,-0.00174931,-0.00182191,0.000
 64606,-0.00012548,0.00016756,-0.00015102,-0.00001868,0.00032716,0.0000
 2907,0.00012005,0.00013406,-0.00008837,0.00000222,-0.00003698,-0.00010
 958,-0.00003720,-0.00000790,0.02772849,-0.00414001,0.00550302,0.012779
 86,-0.04667799,0.00337277,0.00131877,-0.00529713,0.00308411,-0.0008055
 1,0.00085891,-0.00044696,-0.02791565,-0.00079700,-0.00523605,-0.000529
 42,-0.00090408,-0.00029272,-0.01263811,0.06038954,-0.00020681,-0.00013
 510,-0.00042247,-0.00042774,-0.00027685,0.00030770,-0.00003117,0.00007
 460,-0.00045619,-0.00048847,0.00056242,0.00037626,-0.00003832,-0.00261
 322,-0.00007092,0.00102347,0.00022930,-0.00005128,-0.00062154,0.000826
 04,-0.00054134,0.00013796,0.00031093,0.00004742,-0.00011182,-0.0000177
 3,0.00005647,-0.00027185,-0.00019002,-0.00020741,-0.01497781,0.0017317
 1,-0.00354515,-0.05572977,0.00330353,-0.06387524,-0.00104576,0.0032492
 6,-0.00080291,-0.00016275,-0.00073623,0.00023546,-0.01848049,-0.000987
 31,-0.00416878,0.02745195,-0.00142732,0.00783023,0.06452224,-0.0024777
 3,0.06617125,0.00002819,0.00034531,-0.00053431,-0.00045397,-0.00024021
 ,0.00067563,0.00053127,-0.00012504,0.00031767,-0.00015069,-0.00003701,
 0.00022506,-0.00012082,0.00010088,-0.00051033,0.00044877,0.00041696,-0
 .00049366,0.00004323,-0.00000891,0.00007593,0.00005413,0.00001262,0.00
 009933,-0.00006383,-0.00004211,0.00010428,-0.00025980,-0.00022780,0.00
 003143,0.00028785,0.00071605,0.00021155,-0.01219646,-0.00737632,-0.007
 86264,-0.00007039,-0.00002664,-0.00022961,-0.00017987,-0.00006588,0.00
 000528,-0.23159114,-0.01307162,-0.02202046,0.00137666,0.00134901,0.001
 05149,0.00056122,-0.00018062,0.00026617,0.55105563,-0.00006431,0.00073
 872,0.00088812,0.00031222,0.00019667,-0.00090344,-0.00063107,-0.000206
 09,-0.00058466,0.00006117,0.00011715,-0.00042056,0.00053547,-0.0000735
 9,0.00097831,-0.00029464,-0.00059612,0.00100339,-0.00027750,0.00008118
 ,-0.00021962,-0.00013562,-0.00000799,-0.00016299,0.00005699,0.00005139
 ,-0.00019649,0.00016433,0.00036836,-0.00016592,-0.00105824,-0.00036681
 ,-0.00042108,-0.02694360,-0.00164884,-0.00607519,-0.00020113,-0.000572
 91,-0.00013790,0.00008597,0.00010118,0.00013667,-0.01052813,-0.0551395
 1,-0.02093183,-0.00014885,0.00066903,0.00065125,-0.00144729,-0.0040264
 6,-0.00282532,0.01290784,0.20164317,-0.00051152,0.00025166,-0.00031856
 ,0.00018920,-0.00002765,0.00027799,0.00038338,-0.00035616,0.00024218,0
 .00024111,-0.00018394,-0.00002815,-0.00007822,0.00068938,0.00006724,-0
 .00051149,0.00017711,-0.00028712,-0.00010568,-0.00022647,-0.00010261,0
 .00001495,-0.00006582,0.00001262,0.00006313,-0.00001270,0.00005775,0.0
 0015979,-0.00003303,0.00011159,0.00015584,0.00108761,0.00045289,-0.023
 83072,-0.00298844,-0.00700789,0.00032724,-0.00039622,0.00035624,0.0000
 1506,-0.00028539,0.00000036,-0.02213485,-0.02117035,-0.08273912,-0.001
 32136,0.00073966,0.00080401,-0.00144941,-0.00429287,-0.00168576,-0.017
 15849,0.24689304,0.50234215,0.00014108,-0.00035288,0.00015653,0.000113
 46,0.00005678,-0.00022455,-0.00031514,0.00017476,-0.00012110,-0.000095
 19,0.00003820,-0.00001107,0.00019992,-0.00028402,0.00006016,0.00009642
 ,-0.00002134,0.00013566,-0.00004145,0.00013213,0.00004631,-0.00003552,
 0.00002721,-0.00001365,-0.00000960,-0.00001130,-0.00003812,0.00000569,
 -0.00002748,-0.00003215,0.00045077,-0.00182260,-0.00078478,0.00235127,
 -0.00674287,0.00356521,0.00000037,-0.00024617,0.00001595,0.00001800,0.
 00024950,-0.00013841,-0.06363556,0.06765511,-0.04067197,-0.00013503,0.
 00047281,-0.00003818,0.00030498,-0.00019111,0.00046073,-0.01954403,0.0
 2083325,-0.01637918,0.07604890,0.00046822,-0.00070332,0.00122497,0.000
 44694,0.00041865,-0.00133597,-0.00117363,0.00047963,-0.00070274,-0.000
 14120,0.00036599,-0.00026678,0.00053785,-0.00101806,0.00079258,0.00020
 764,-0.00092395,0.00098553,-0.00010761,0.00040673,-0.00002570,-0.00013
 166,0.00008925,-0.00014181,-0.00000801,0.00007304,-0.00019944,0.000046
 70,0.00035770,-0.00011850,-0.00139908,-0.00414446,-0.00355313,0.006917
 92,-0.02435111,0.01317828,-0.00003484,0.00029899,-0.00000282,-0.000050
 36,0.00026498,-0.00015736,0.05466177,-0.19832605,0.09802783,0.00065479
 ,0.00075702,-0.00001605,-0.00041862,0.00069803,0.00063409,0.00459208,0
 .00531266,-0.00122186,-0.06581671,0.22159633,-0.00007729,-0.00054823,0
 .00029702,0.00019409,0.00022340,-0.00035737,-0.00020372,0.00014680,-0.
 00013153,0.00007631,0.00013083,-0.00004619,-0.00010226,-0.00022576,0.0
 0017735,-0.00004207,-0.00041862,0.00014339,0.00004880,0.00004916,-0.00
 002216,0.00001294,0.00002098,-0.00002595,0.00000637,0.00005046,-0.0000
 1690,0.00003243,0.00017586,0.00002650,-0.00075547,-0.00276376,-0.00082
 364,0.00462601,-0.01695079,0.00746353,-0.00007147,0.00007813,-0.000060
 45,-0.00007366,-0.00015034,0.00014137,-0.03373770,0.10223231,-0.107248
 00,0.00040365,0.00046468,0.00064148,0.00032025,0.00066401,0.00079261,-
 0.00677318,0.00187469,-0.00176243,0.04494834,-0.10839360,0.11661778,0.
 00006891,0.00013253,0.00002638,0.00005607,-0.00008822,-0.00008124,-0.0
 0009411,0.00004087,-0.00003331,-0.00003593,-0.00001726,-0.00003707,0.0
 0013405,-0.00009066,-0.00000686,-0.00008409,0.00004463,0.00018084,-0.0
 0003502,0.00006765,0.00003675,-0.00001559,0.00001261,0.00000024,0.0000
 1531,-0.00000109,-0.00002592,0.00008078,0.00001666,-0.00007620,-0.0000
 3609,0.00057749,-0.00031716,0.00425258,-0.00002154,-0.00799681,-0.0000
 2589,-0.00009066,0.00008618,-0.00001422,0.00033057,0.00019542,-0.11232
 648,-0.00351861,0.11312267,0.00026286,-0.00185548,-0.00110985,0.000369
 17,0.00049316,-0.00009832,-0.02051019,0.00324724,0.02777808,0.00526497
 ,-0.00002067,-0.00814280,0.12646218,-0.00003370,0.00045860,-0.00066883
 ,-0.00012776,-0.00045136,0.00041956,0.00026441,-0.00018542,0.00028002,
 -0.00012188,-0.00019110,0.00000692,0.00013283,0.00036063,-0.00027884,-
 0.00002266,0.00062046,0.00013241,-0.00004027,-0.00007039,0.00002078,-0
 .00000107,-0.00003131,0.00004475,0.00000802,-0.00005185,0.00000493,0.0
 0004522,-0.00015010,-0.00020250,0.00074953,0.00194050,-0.00061040,0.01
 385146,-0.00160956,-0.02421147,0.00008593,-0.00009379,0.00008452,-0.00
 028996,-0.00021821,0.00057119,-0.00415697,-0.04784597,0.00072438,-0.00
 134814,-0.00434662,-0.00321775,0.00003735,0.00083988,0.00079656,0.0015
 2047,0.00015425,0.00132918,-0.01275298,-0.00053337,0.02327678,0.002222
 39,0.05088226,0.00015981,0.00041670,-0.00007961,-0.00001769,-0.0002548
 7,0.00004353,-0.00023571,-0.00005774,0.00004535,-0.00024659,-0.0001575
 9,-0.00002245,0.00051425,0.00010938,-0.00011422,0.00012288,0.00054834,
 0.00032035,-0.00016640,0.00004834,0.00006900,-0.00009197,-0.00001924,0
 .00000072,-0.00000438,-0.00007848,-0.00007005,0.00000850,-0.00019311,-
 0.00019162,-0.00038845,0.00112705,0.00146826,0.00780909,-0.00027518,-0
 .01567444,0.00006439,-0.00011162,-0.00002662,0.00009049,-0.00081724,0.
 00043906,0.11232454,-0.00068557,-0.24015879,-0.00163058,-0.00300870,-0
 .00065459,-0.00039737,0.00010323,-0.00007436,-0.00384066,0.00034564,0.
 00729324,0.00851822,0.00073603,-0.01554849,-0.12147946,0.00154426,0.26
 162804,-0.00014725,0.00017164,0.00021877,0.00023518,0.00004902,-0.0002
 8678,-0.00014380,-0.00011704,-0.00010977,0.00010451,-0.00004763,-0.000
 16749,0.00013838,0.00023708,0.00037460,-0.00030288,-0.00009524,0.00030
 789,-0.00009299,-0.00008511,-0.00011430,-0.00004817,-0.00004085,-0.000
 06474,0.00004518,0.00000240,-0.00006845,0.00013604,0.00009214,-0.00004
 091,0.00016143,0.00022750,-0.00001895,-0.00548836,0.00154822,-0.000583
 25,0.00005100,-0.00019285,0.00017348,0.00000342,-0.00004475,0.00003728
 ,-0.00243695,-0.01614435,-0.02084744,0.00004324,0.00005836,-0.00016578
 ,-0.00029663,-0.00150936,-0.00092521,-0.08888233,-0.05168432,-0.076727
 33,-0.00063663,0.00043522,-0.00048091,0.00119390,-0.00019937,0.0005675
 5,0.08726740,-0.00007071,0.00008685,-0.00017784,-0.00002570,-0.0001048
 1,0.00012510,0.00011917,-0.00008073,0.00010150,-0.00001427,-0.00006927
 ,0.00001604,0.00002423,0.00018564,-0.00004928,0.00001778,0.00020961,-0
 .00003485,-0.00001713,-0.00005800,-0.00001278,-0.00000825,-0.00002623,
 0.00000748,0.00000371,-0.00003506,-0.00000017,-0.00001925,-0.00008735,
 -0.00001509,-0.00018147,0.00007896,-0.00001971,-0.00075621,-0.00036551
 ,-0.00103132,0.00008771,0.00007593,-0.00006679,-0.00009452,-0.00005233
 ,0.00002859,0.00144103,0.00371569,0.00167084,0.00009060,0.00006642,0.0
 0018884,-0.00009262,-0.00010126,0.00000841,-0.05353241,-0.09940425,-0.
 14357164,-0.00048393,-0.00109427,-0.00057035,0.00012248,-0.00014041,-0
 .00025608,0.05743679,0.09744632,0.00013410,0.00016044,0.00011408,-0.00
 001202,-0.00005941,-0.00014278,-0.00018613,-0.00000726,-0.00011092,-0.
 00007243,-0.00000401,-0.00007238,0.00018974,-0.00000362,0.00017552,0.0
 0010074,0.00009269,0.00027201,-0.00006193,0.00001089,-0.00003498,-0.00
 005430,-0.00001645,-0.00003987,-0.00000008,-0.00003029,-0.00006918,-0.
 00003232,-0.00003359,-0.00009779,0.00004261,0.00017264,0.00000435,-0.0
 0051558,0.00105176,0.00091326,0.00007684,0.00007746,-0.00011538,-0.000
 04703,-0.00004096,0.00002929,0.00292860,-0.00269864,0.00001974,0.00013
 475,0.00020987,0.00034274,-0.00001784,-0.00032225,0.00009502,-0.077634
 48,-0.13848709,-0.23050133,0.00016648,0.00036139,0.00031077,-0.0007661
 8,0.00048379,0.00094757,0.08385636,0.14816692,0.23724176,-0.00016145,-
 0.00016406,0.00007567,0.00013957,0.00012374,-0.00009784,0.00006289,0.0
 0001164,-0.00000722,0.00014699,0.00002759,-0.00004169,-0.00016276,0.00
 004189,0.00008242,-0.00024449,-0.00028197,-0.00001658,0.00004105,-0.00
 004265,-0.00003093,0.00003071,-0.00000267,-0.00000690,0.00001994,0.000
 05044,0.00001867,0.00009273,0.00017081,0.00006309,0.00009594,-0.000275
 93,-0.00011511,0.00127840,0.00105759,0.00129595,-0.00002199,-0.0002696
 3,0.00022531,0.00009739,0.00018804,-0.00006994,-0.01250209,0.00692111,
 0.02159647,-0.00006107,-0.00063771,-0.00096985,0.00040796,0.00017150,-
 0.00024464,-0.18036345,0.05521021,0.13088046,-0.00054769,0.00033322,-0
 .00020865,-0.00498313,0.00017715,-0.00168047,0.00909630,-0.00404702,-0
 .00822991,0.18753827,-0.00016724,-0.00009998,-0.00018040,0.00005987,0.
 00001074,0.00026250,0.00019263,-0.00003134,0.00014113,0.00005629,-0.00
 006401,0.00010141,-0.00014878,0.00010937,-0.00020186,-0.00009476,0.000
 16759,-0.00037218,0.00003384,-0.00004744,0.00002787,0.00004105,-0.0000
 0519,0.00004266,0.00000125,-0.00001244,0.00007121,0.00000863,-0.000102
 52,0.00009348,0.00005855,-0.00002708,0.00006021,-0.00028885,0.00066454
 ,0.00161002,-0.00017036,-0.00030969,0.00014071,0.00004068,0.00004688,-
 0.00000702,-0.00147229,0.00263374,-0.00114896,0.00011611,0.00026805,-0
 .00006670,0.00011128,-0.00004241,-0.00003990,0.05297333,-0.04739120,-0
 .07633511,-0.00088633,-0.00002454,0.00063338,-0.00160406,0.00066291,0.
 00093644,0.00990250,-0.00024592,-0.00908430,-0.05876330,0.04383995,0.0
 0012318,0.00002820,0.00019447,-0.00001783,0.00008593,-0.00018203,-0.00
 010102,0.00004470,-0.00009460,-0.00000037,0.00007308,-0.00003710,0.000
 02837,-0.00013562,0.00007853,0.00000158,-0.00027052,0.00015785,-0.0000
 0075,0.00004286,0.00000146,-0.00000724,0.00001463,-0.00001390,-0.00000
 346,0.00003782,-0.00002002,0.00004093,0.00014432,0.00000278,-0.0000089
 3,-0.00011228,-0.00002939,-0.00021035,-0.00006514,0.00126225,0.0000585
 8,0.00029930,-0.00013264,-0.00008219,0.00001130,-0.00004143,-0.0059466
 4,0.00202450,0.00724826,0.00042437,0.00032995,-0.00009879,0.00003656,0
 .00021368,-0.00001052,0.13399394,-0.08123901,-0.18758532,0.00037959,0.
 00019499,-0.00056867,-0.00125532,-0.00053021,0.00036010,0.01506537,-0.
 00450785,-0.00928151,-0.14251835,0.08331541,0.18879025\\0.00000555,0.0
 0000703,0.00000500,-0.00000676,-0.00000595,0.00000090,-0.00000117,0.00
 001176,0.00000606,0.00000879,-0.00002389,-0.00000197,0.00001454,0.0000
 0570,-0.00001137,0.00000356,0.00002175,0.00002701,0.00004820,-0.000679
 48,-0.00011712,-0.00022866,0.00029534,-0.00004016,-0.00029938,0.000499
 99,0.00065072,0.00051422,-0.00014647,-0.00052077,0.00000356,0.00000487
 ,0.00001198,-0.00001142,-0.00001574,-0.00002914,-0.00000551,0.00000262
 ,0.00000026,-0.00001105,0.00000343,0.00000041,-0.00000573,0.00002174,0
 .00002483,-0.00000014,-0.00000191,0.00000616,0.00000223,0.00000070,-0.
 00000441,-0.00000513,-0.00000443,-0.00000332,-0.00000146,-0.00000475,-
 0.00000677,-0.00000848,-0.00000037,-0.00000930,-0.00001018,0.00000685,
 0.00000679,-0.00000557,0.00000123,0.00000421\\\@


 A FOOL CAN ASK MORE QUESTIONS THAN
 A WISE MAN CAN ANSWER.
 Job cpu time:  0 days 15 hours 10 minutes 16.2 seconds.
 File lengths (MBytes):  RWF=    490 Int=      0 D2E=      0 Chk=      8 Scr=      1
 Normal termination of Gaussian 09 at Thu Jun  1 23:26:09 2017.
