 Entering Gaussian System, Link 0=/sw/chem/g09/g09
 Initial command:
 /sw/chem/g09/l1.exe "/scratch_local/craigv/BB3ImagMinus1Freq/Gau-1725.inp" -scrdir="/scratch_local/craigv/BB3ImagMinus1Freq/"
 Entering Link 1 = /sw/chem/g09/l1.exe PID=      1726.
  
 Copyright (c) 1988,1990,1992,1993,1995,1998,2003,2009,2013,
            Gaussian, Inc.  All Rights Reserved.
  
 This is part of the Gaussian(R) 09 program.  It is based on
 the Gaussian(R) 03 system (copyright 2003, Gaussian, Inc.),
 the Gaussian(R) 98 system (copyright 1998, Gaussian, Inc.),
 the Gaussian(R) 94 system (copyright 1995, Gaussian, Inc.),
 the Gaussian 92(TM) system (copyright 1992, Gaussian, Inc.),
 the Gaussian 90(TM) system (copyright 1990, Gaussian, Inc.),
 the Gaussian 88(TM) system (copyright 1988, Gaussian, Inc.),
 the Gaussian 86(TM) system (copyright 1986, Carnegie Mellon
 University), and the Gaussian 82(TM) system (copyright 1983,
 Carnegie Mellon University). Gaussian is a federally registered
 trademark of Gaussian, Inc.
  
 This software contains proprietary and confidential information,
 including trade secrets, belonging to Gaussian, Inc.
  
 This software is provided under written license and may be
 used, copied, transmitted, or stored only in accord with that
 written license.
  
 The following legend is applicable only to US Government
 contracts under FAR:
  
                    RESTRICTED RIGHTS LEGEND
  
 Use, reproduction and disclosure by the US Government is
 subject to restrictions as set forth in subparagraphs (a)
 and (c) of the Commercial Computer Software - Restricted
 Rights clause in FAR 52.227-19.
  
 Gaussian, Inc.
 340 Quinnipiac St., Bldg. 40, Wallingford CT 06492
  
  
 ---------------------------------------------------------------
 Warning -- This program may not be used in any manner that
 competes with the business of Gaussian, Inc. or will provide
 assistance to any competitor of Gaussian, Inc.  The licensee
 of this program is prohibited from giving any competitor of
 Gaussian, Inc. access to this program.  By using this program,
 the user acknowledges that Gaussian, Inc. is engaged in the
 business of creating and licensing software in the field of
 computational chemistry and represents and warrants to the
 licensee that it is not a competitor of Gaussian, Inc. and that
 it will not use this program in any manner prohibited above.
 ---------------------------------------------------------------
  

 Cite this work as:
 Gaussian 09, Revision D.01,
 M. J. Frisch, G. W. Trucks, H. B. Schlegel, G. E. Scuseria, 
 M. A. Robb, J. R. Cheeseman, G. Scalmani, V. Barone, B. Mennucci, 
 G. A. Petersson, H. Nakatsuji, M. Caricato, X. Li, H. P. Hratchian, 
 A. F. Izmaylov, J. Bloino, G. Zheng, J. L. Sonnenberg, M. Hada, 
 M. Ehara, K. Toyota, R. Fukuda, J. Hasegawa, M. Ishida, T. Nakajima, 
 Y. Honda, O. Kitao, H. Nakai, T. Vreven, J. A. Montgomery, Jr., 
 J. E. Peralta, F. Ogliaro, M. Bearpark, J. J. Heyd, E. Brothers, 
 K. N. Kudin, V. N. Staroverov, T. Keith, R. Kobayashi, J. Normand, 
 K. Raghavachari, A. Rendell, J. C. Burant, S. S. Iyengar, J. Tomasi, 
 M. Cossi, N. Rega, J. M. Millam, M. Klene, J. E. Knox, J. B. Cross, 
 V. Bakken, C. Adamo, J. Jaramillo, R. Gomperts, R. E. Stratmann, 
 O. Yazyev, A. J. Austin, R. Cammi, C. Pomelli, J. W. Ochterski, 
 R. L. Martin, K. Morokuma, V. G. Zakrzewski, G. A. Voth, 
 P. Salvador, J. J. Dannenberg, S. Dapprich, A. D. Daniels, 
 O. Farkas, J. B. Foresman, J. V. Ortiz, J. Cioslowski, 
 and D. J. Fox, Gaussian, Inc., Wallingford CT, 2013.
 
 ******************************************
 Gaussian 09:  ES64L-G09RevD.01 24-Apr-2013
                20-Jun-2017 
 ******************************************
 %nprocshared=12
 Will use up to   12 processors via shared memory.
 ----------------------------------------------------------------------
 #p uwb97xd/gen nosymm freq temp=373.15 scf=maxcycle=500 punch=derivati
 ves
 ----------------------------------------------------------------------
 1/10=4,30=1,38=1,112=373150/1,3;
 2/12=2,15=1,17=6,18=5,40=1/2;
 3/5=7,11=2,16=1,25=1,30=1,71=2,74=-58,116=2,140=1/1,2,3;
 4//1;
 5/5=2,7=500,38=5,98=1/2;
 8/6=4,10=90,11=11/1;
 11/6=1,8=1,9=11,15=111,16=1,31=1/1,2,10;
 10/6=1,31=1/2;
 6/7=2,8=2,9=2,10=2,18=1,28=1/1;
 7/8=1,10=1,25=1,30=1/1,2,3,16;
 1/10=4,30=1/3;
 99/10=4/99;
 Leave Link    1 at Tue Jun 20 11:00:34 2017, MaxMem=           0 cpu:         0.7
 (Enter /sw/chem/g09/l101.exe)
 ------
 CrSite
 ------
 Symbolic Z-matrix:
 Charge =  0 Multiplicity = 3
 Cr                    2.2813    4.08925   5.82953 
 O                     3.81502   4.95572   5.48423 
 O                     2.46198   2.39302   5.25776 
 O                     4.90772   2.84001   4.23297 
 Si                    3.70858   1.75608   4.44061 
 Si                    5.10999   4.39334   4.68306 
 Cr                   -0.87797   4.93078   1.00443 
 O                    -1.7293    3.54962   1.79037 
 O                     0.78144   4.37408   0.57939 
 O                     0.61152   2.32119   2.28196 
 Si                    1.60657   3.18767   1.32059 
 Si                   -0.99468   2.32665   2.56091 
 C                    -0.96621   6.51916   2.17345 
 C                    -0.82631   6.21148   3.66178 
 H                    -1.94766   6.96391   1.94714 
 H                    -0.19091   7.21233   1.82064 
 C                     0.50764   5.54478   4.00213 
 H                    -0.92587   7.13462   4.24284 
 H                    -1.64304   5.55581   3.97522 
 C                     0.6255    5.08019   5.44207 
 H                     0.63364   4.67143   3.36166 
 H                     1.33253   6.21628   3.74899 
 H                     0.61904   5.91854   6.1551 
 H                    -0.18704   4.39033   5.71104 
 F(iso=1000000)        3.24979   1.17966   2.99868 
 F(iso=1000000)        4.33625   0.49987   5.23968 
 F(iso=1000000)        6.41227   4.47605   5.63808 
 F(iso=1000000)        5.4549    5.2708    3.37496 
 F(iso=1000000)        2.78628   3.82472   2.23541 
 F(iso=1000000)        2.33157   2.21924   0.26557 
 F(iso=1000000)       -1.60804   0.90782   2.10953 
 F(iso=1000000)       -1.22285   2.42689   4.16263 
 
 NAtoms=     32 NQM=       32 NQMF=       0 NMMI=      0 NMMIF=      0
                NMic=       0 NMicF=      0.
                    Isotopes and Nuclear Properties:
 (Nuclear quadrupole moments (NQMom) in fm**2, nuclear magnetic moments (NMagM)
  in nuclear magnetons)

  Atom         1           2           3           4           5           6           7           8           9          10
 IAtWgt=          52          16          16          16          28          28          52          16          16          16
 AtmWgt=  51.9405097  15.9949146  15.9949146  15.9949146  27.9769284  27.9769284  51.9405097  15.9949146  15.9949146  15.9949146
 NucSpn=           0           0           0           0           0           0           0           0           0           0
 AtZEff=   0.0000000   0.0000000   0.0000000   0.0000000   0.0000000   0.0000000   0.0000000   0.0000000   0.0000000   0.0000000
 NQMom=    0.0000000   0.0000000   0.0000000   0.0000000   0.0000000   0.0000000   0.0000000   0.0000000   0.0000000   0.0000000
 NMagM=    0.0000000   0.0000000   0.0000000   0.0000000   0.0000000   0.0000000   0.0000000   0.0000000   0.0000000   0.0000000
 AtZNuc=  24.0000000   8.0000000   8.0000000   8.0000000  14.0000000  14.0000000  24.0000000   8.0000000   8.0000000   8.0000000

  Atom        11          12          13          14          15          16          17          18          19          20
 IAtWgt=          28          28          12          12           1           1          12           1           1          12
 AtmWgt=  27.9769284  27.9769284  12.0000000  12.0000000   1.0078250   1.0078250  12.0000000   1.0078250   1.0078250  12.0000000
 NucSpn=           0           0           0           0           1           1           0           1           1           0
 AtZEff=   0.0000000   0.0000000   0.0000000   0.0000000   0.0000000   0.0000000   0.0000000   0.0000000   0.0000000   0.0000000
 NQMom=    0.0000000   0.0000000   0.0000000   0.0000000   0.0000000   0.0000000   0.0000000   0.0000000   0.0000000   0.0000000
 NMagM=    0.0000000   0.0000000   0.0000000   0.0000000   2.7928460   2.7928460   0.0000000   2.7928460   2.7928460   0.0000000
 AtZNuc=  14.0000000  14.0000000   6.0000000   6.0000000   1.0000000   1.0000000   6.0000000   1.0000000   1.0000000   6.0000000

  Atom        21          22          23          24          25          26          27          28          29          30
 IAtWgt=           1           1           1           1     1000000     1000000     1000000     1000000     1000000     1000000
 AtmWgt=   1.0078250   1.0078250   1.0078250   1.0078250************************************************************************
 NucSpn=           1           1           1           1           0           0           0           0           0           0
 AtZEff=   0.0000000   0.0000000   0.0000000   0.0000000   0.0000000   0.0000000   0.0000000   0.0000000   0.0000000   0.0000000
 NQMom=    0.0000000   0.0000000   0.0000000   0.0000000   0.0000000   0.0000000   0.0000000   0.0000000   0.0000000   0.0000000
 NMagM=    2.7928460   2.7928460   2.7928460   2.7928460   0.0000000   0.0000000   0.0000000   0.0000000   0.0000000   0.0000000
 AtZNuc=   1.0000000   1.0000000   1.0000000   1.0000000   9.0000000   9.0000000   9.0000000   9.0000000   9.0000000   9.0000000

  Atom        31          32
 IAtWgt=     1000000     1000000
 AtmWgt=************************
 NucSpn=           0           0
 AtZEff=   0.0000000   0.0000000
 NQMom=    0.0000000   0.0000000
 NMagM=    0.0000000   0.0000000
 AtZNuc=   9.0000000   9.0000000
 Leave Link  101 at Tue Jun 20 11:00:34 2017, MaxMem=    33554432 cpu:         0.2
 (Enter /sw/chem/g09/l103.exe)

 GradGradGradGradGradGradGradGradGradGradGradGradGradGradGradGradGradGrad
 Berny optimization.
 Initialization pass.
 Trust Radius=3.00D-01 FncErr=1.00D-07 GrdErr=1.00D-07
 Number of steps in this run=      2 maximum allowed number of steps=      2.
 GradGradGradGradGradGradGradGradGradGradGradGradGradGradGradGradGradGrad

 Leave Link  103 at Tue Jun 20 11:00:34 2017, MaxMem=    33554432 cpu:         0.1
 (Enter /sw/chem/g09/l202.exe)
                          Input orientation:                          
 ---------------------------------------------------------------------
 Center     Atomic      Atomic             Coordinates (Angstroms)
 Number     Number       Type             X           Y           Z
 ---------------------------------------------------------------------
      1         24           0        2.281296    4.089248    5.829530
      2          8           0        3.815024    4.955716    5.484231
      3          8           0        2.461980    2.393017    5.257757
      4          8           0        4.907720    2.840014    4.232965
      5         14           0        3.708582    1.756081    4.440606
      6         14           0        5.109994    4.393341    4.683060
      7         24           0       -0.877969    4.930778    1.004426
      8          8           0       -1.729298    3.549616    1.790368
      9          8           0        0.781435    4.374084    0.579394
     10          8           0        0.611519    2.321194    2.281960
     11         14           0        1.606571    3.187674    1.320593
     12         14           0       -0.994677    2.326650    2.560914
     13          6           0       -0.966207    6.519160    2.173454
     14          6           0       -0.826314    6.211480    3.661784
     15          1           0       -1.947660    6.963907    1.947142
     16          1           0       -0.190905    7.212333    1.820638
     17          6           0        0.507636    5.544784    4.002133
     18          1           0       -0.925867    7.134619    4.242836
     19          1           0       -1.643038    5.555805    3.975220
     20          6           0        0.625495    5.080190    5.442072
     21          1           0        0.633643    4.671427    3.361660
     22          1           0        1.332525    6.216284    3.748988
     23          1           0        0.619044    5.918540    6.155100
     24          1           0       -0.187039    4.390329    5.711036
     25          9           0        3.249786    1.179660    2.998675
     26          9           0        4.336251    0.499865    5.239684
     27          9           0        6.412266    4.476048    5.638078
     28          9           0        5.454902    5.270797    3.374965
     29          9           0        2.786284    3.824719    2.235409
     30          9           0        2.331573    2.219242    0.265574
     31          9           0       -1.608038    0.907818    2.109532
     32          9           0       -1.222849    2.426894    4.162631
 ---------------------------------------------------------------------
                    Distance matrix (angstroms):
                    1          2          3          4          5
     1  Cr   0.000000
     2  O    1.795082   0.000000
     3  O    1.799103   2.906793   0.000000
     4  O    3.317787   2.689953   2.689173   0.000000
     5  Si   3.067560   3.367217   1.620938   1.629711   0.000000
     6  Si   3.067311   1.623295   3.368019   1.629824   2.996311
     7  Cr   5.828444   6.487947   5.973802   6.947586   6.551525
     8  O    5.717595   6.808909   5.561234   7.107730   6.309601
     9  O    5.467599   5.796411   5.351256   5.720855   5.507367
    10  O    4.301096   5.240009   3.504958   4.746887   3.817185
    11  Si   4.647430   5.033798   4.106637   4.415922   4.025219
    12  Si   4.952030   6.212165   4.384729   6.156102   5.097003
    13  C    5.460553   6.022107   6.187928   7.230541   7.048443
    14  C    4.342837   5.142011   5.285893   6.676240   6.404875
    15  H    6.420333   7.053535   7.162271   8.320319   8.082814
    16  H    5.651252   5.878920   6.486709   7.136699   7.200064
    17  C    2.933229   3.671843   3.915314   5.170087   4.979215
    18  H    4.698699   5.363276   5.915265   7.243926   7.102528
    19  H    4.581447   5.694529   5.338474   7.096082   6.579842
    20  C    1.968189   3.192235   3.259992   4.981745   4.643066
    21  H    3.023917   3.835011   3.482693   4.730854   4.372484
    22  H    3.122996   3.280686   4.262561   4.941199   5.100725
    23  H    2.493068   3.404612   4.078106   5.618244   5.459927
    24  H    2.489451   4.048161   3.348435   5.526730   4.871254
    25  F    4.173418   4.555884   2.682597   2.651225   1.619234
    26  F    4.177850   4.492893   2.664065   2.610815   1.615727
    27  F    4.153454   2.645641   4.482011   2.629564   4.017719
    28  F    4.182430   2.690256   4.558959   2.635200   4.066750
    29  F    3.639051   3.590586   3.359990   3.075771   3.161138
    30  F    5.870013   6.076454   4.996909   4.770962   4.420584
    31  F    6.251944   7.561989   5.355575   7.120214   5.866848
    32  F    4.221493   5.789795   3.844270   6.144875   4.984603
                    6          7          8          9         10
     6  Si   0.000000
     7  Cr   7.048183   0.000000
     8  O    7.473651   1.802796   0.000000
     9  O    5.964635   1.801161   2.906886   0.000000
    10  O    5.504121   3.265057   2.688886   2.672445   0.000000
    11  Si   5.003378   3.051444   3.388172   1.624129   1.632526
    12  Si   6.785405   3.036076   1.621436   3.357526   1.630249
    13  C    6.909229   1.974176   3.089863   3.193216   4.485968
    14  C    6.291930   2.950325   3.376847   3.932176   4.370996
    15  H    7.993969   2.483257   3.424857   4.003233   5.311900
    16  H    6.651294   2.518681   3.972791   3.246812   4.977946
    17  C    4.792826   3.359040   3.725114   3.627761   3.655314
    18  H    6.643796   3.917462   4.417278   4.894511   5.420115
    19  H    6.888817   3.130752   2.967459   4.336608   4.291021
    20  C    4.599847   4.687796   4.606805   4.916151   4.195064
    21  H    4.675591   2.812256   3.051378   2.802010   2.586472
    22  H    4.297079   3.751190   4.508001   3.707253   4.224186
    23  H    4.966061   5.454004   5.493396   5.787937   5.286035
    24  H    5.395860   4.787656   4.296161   5.222256   4.083819
    25  F    4.077410   5.923367   5.645173   4.706381   2.962640
    26  F    4.008449   8.047266   7.615093   7.025994   5.093034
    27  F    1.617038   8.650147   9.052525   7.570135   7.039573
    28  F    1.612453   6.770548   7.555537   5.519113   5.775221
    29  F    3.422565   4.020626   4.545792   2.657745   2.644307
    30  F    5.653363   4.266086   4.537132   2.672967   2.652318
    31  F    7.993990   4.235383   2.663769   4.479498   2.637005
    32  F    6.651516   4.045076   2.672944   4.544039   2.629259
                   11         12         13         14         15
    11  Si   0.000000
    12  Si   3.007698   0.000000
    13  C    4.294806   4.210472   0.000000
    14  C    4.532495   4.041307   1.526225   0.000000
    15  H    5.223510   4.773787   1.101030   2.182558   0.000000
    16  H    4.436084   5.006392   1.098208   2.189810   1.778737
    17  C    3.735543   3.832811   2.542772   1.529622   3.502196
    18  H    5.525497   5.094130   2.159342   1.095316   2.518614
    19  H    4.818200   3.584421   2.152328   1.093247   2.487699
    20  C    4.640120   4.302094   3.909989   2.560662   4.731179
    21  H    2.704453   2.964894   2.717622   2.143201   3.730878
    22  H    3.891617   4.685791   2.803250   2.160605   3.816438
    23  H    5.639618   5.331411   4.327502   2.896808   5.038618
    24  H    4.892791   3.851535   4.201608   2.815084   4.887739
    25  F    3.090022   4.418448   6.853163   6.509494   7.847081
    26  F    5.480396   6.239531   8.587767   7.859032   9.597511
    27  F    6.587510   8.303713   8.403558   7.701591   9.471051
    28  F    4.834201   7.136368   6.650765   6.357737   7.726786
    29  F    1.623095   4.079930   4.620069   4.558732   5.687515
    30  F    1.605165   4.042779   5.744968   6.119188   6.606917
    31  F    4.019189   1.610292   5.648291   5.581166   6.067778
    32  F    4.081860   1.620990   4.557338   3.838122   5.100807
                   16         17         18         19         20
    16  H    0.000000
    17  C    2.833302   0.000000
    18  H    2.532440   2.154169   0.000000
    19  H    3.081396   2.150871   1.754596   0.000000
    20  C    4.281043   1.517617   2.839995   2.743010   0.000000
    21  H    3.083964   1.090338   3.045629   2.518304   2.120205
    22  H    2.651695   1.093360   2.487481   3.056369   2.158039
    23  H    4.595376   2.188006   2.742691   3.162352   1.100582
    24  H    4.806133   2.176164   3.198844   2.547808   1.099300
    25  F    7.044095   5.251726   7.378723   6.636566   5.298229
    26  F    8.788757   6.452986   8.526638   7.931790   5.898309
    27  F    8.103207   6.219579   7.928612   8.295715   5.821523
    28  F    6.169330   4.994382   6.703823   7.128975   5.256656
    29  F    4.528975   3.357406   5.363326   5.063842   4.065453
    30  F    5.806210   5.324270   7.112697   6.379001   6.155636
    31  F    6.468279   5.436862   6.617356   5.008573   5.788193
    32  F    5.426810   3.569534   4.717765   3.162557   3.477546
                   21         22         23         24         25
    21  H    0.000000
    22  H    1.739265   0.000000
    23  H    3.059217   2.527268   0.000000
    24  H    2.504417   3.081042   1.783926   0.000000
    25  F    4.378173   5.441180   6.272225   5.429278   0.000000
    26  F    5.885423   6.627367   6.634580   5.984817   2.581598
    27  F    6.213915   5.692175   5.992455   6.600265   5.275784
    28  F    4.858391   4.245919   5.615536   6.169599   4.662782
    29  F    2.572784   3.181811   4.944188   4.608747   2.791728
    30  F    4.299061   5.395240   7.162686   6.380445   3.064912
    31  F    4.556063   6.286059   6.814239   5.207490   4.946001
    32  F    3.020935   4.589173   4.422001   2.706573   4.786946
                   26         27         28         29         30
    26  F    0.000000
    27  F    4.503175   0.000000
    28  F    5.243124   2.582606   0.000000
    29  F    4.741595   5.014991   3.242106   0.000000
    30  F    5.631764   7.114002   5.360549   2.581583   0.000000
    31  F    6.730442   9.460876   8.397739   5.275815   4.543187
    32  F    5.981394   8.041825   7.300723   4.662751   5.278645
                   31         32
    31  F    0.000000
    32  F    2.582862   0.000000
 Symmetry turned off by external request.
 Stoichiometry    C4H8Cr2F8O6Si4(3)
 Framework group  C1[X(C4H8Cr2F8O6Si4)]
 Deg. of freedom    90
 Full point group                 C1      NOp   1
 Rotational constants (GHZ):      0.0000161      0.0000061      0.0000056
 Leave Link  202 at Tue Jun 20 11:00:35 2017, MaxMem=    33554432 cpu:         1.3
 (Enter /sw/chem/g09/l301.exe)
 General basis read from cards:  (5D, 7F)
 Centers:       1      7
 def2TZVP
 ****
 Centers:      15     16     18     19     21     22     23     24     13     14
 Centers:      17     20      2      3      4      8      9     10      5      6
 Centers:      11     12
 TZVP
 ****
 Centers:      25     26     27     28     29     30     31     32
 6-31G
 ****
 Ernie: Thresh=  0.10000D-02 Tol=  0.10000D-05 Strict=F.
   488 basis functions,   982 primitive gaussians,   516 cartesian basis functions
   129 alpha electrons      127 beta electrons
       nuclear repulsion energy      4367.6615909199 Hartrees.
 IExCor= 4639 DFT=T Ex+Corr=wB97XD ExCW=0 ScaHFX=  1.000000
 ScaDFX=  1.000000  1.000000  1.000000  1.000000 ScalE2=  1.000000  1.000000
 IRadAn=      0 IRanWt=     -1 IRanGd=            0 ICorTp=0 IEmpDi=121
  HFx wShort=  0.000000 wLong=  0.200000 cFull=  0.222036 cShort=  0.000000 cLong=  0.777964
  DFx wShort=  0.000000 wLong=  0.200000 cFull=  0.000000 cShort=  0.000000 cLong=  1.000000
 NAtoms=   32 NActive=   32 NUniq=   32 SFac= 1.00D+00 NAtFMM=   60 NAOKFM=F Big=F
 Integral buffers will be    131072 words long.
 Raffenetti 2 integral format.
 Two-electron integral symmetry is turned off.
 R6Disp:  Grimme-D2 Dispersion energy=       -0.0348052924 Hartrees.
 Nuclear repulsion after empirical dispersion term =     4367.6267856275 Hartrees.
 Leave Link  301 at Tue Jun 20 11:00:36 2017, MaxMem=    33554432 cpu:         0.1
 (Enter /sw/chem/g09/l302.exe)
 NPDir=0 NMtPBC=     1 NCelOv=     1 NCel=       1 NClECP=     1 NCelD=      1
         NCelK=      1 NCelE2=     1 NClLst=     1 CellRange=     0.0.
 One-electron integrals computed using PRISM.
 PrsmSu:  requested number of processors reduced to:   4 ShMem   1 Linda.
 NBasis=   488 RedAO= T EigKep=  1.02D-04  NBF=   488
 NBsUse=   488 1.00D-06 EigRej= -1.00D+00 NBFU=   488
 Precomputing XC quadrature grid using
 IXCGrd= 4 IRadAn=           0 IRanWt=          -1 IRanGd=           0 AccXCQ= 0.00D+00.
 Generated NRdTot=       0 NPtTot=           0 NUsed=           0 NTot=          32
 NSgBfM=   501   501   501   501   501 MxSgAt=    32 MxSgA2=    32.
 Leave Link  302 at Tue Jun 20 11:00:52 2017, MaxMem=    33554432 cpu:        80.4
 (Enter /sw/chem/g09/l303.exe)
 DipDrv:  MaxL=1.
 Leave Link  303 at Tue Jun 20 11:00:54 2017, MaxMem=    33554432 cpu:         5.1
 (Enter /sw/chem/g09/l401.exe)
 ExpMin= 3.41D-02 ExpMax= 2.54D+05 ExpMxC= 2.46D+03 IAcc=3 IRadAn=         5 AccDes= 0.00D+00
 Harris functional with IExCor= 4639 and IRadAn=       5 diagonalized for initial guess.
 HarFok:  IExCor= 4639 AccDes= 0.00D+00 IRadAn=         5 IDoV= 1 UseB2=F ITyADJ=14
 ICtDFT=  3500011 ScaDFX=  1.000000  1.000000  1.000000  1.000000
 FoFCou: FMM=F IPFlag=           0 FMFlag=      100000 FMFlg1=           0
         NFxFlg=           0 DoJE=T BraDBF=F KetDBF=T FulRan=T
         wScrn=  0.000000 ICntrl=     500 IOpCl=  0 I1Cent=   200000004 NGrid=           0
         NMat0=    1 NMatS0=      1 NMatT0=    0 NMatD0=    1 NMtDS0=    0 NMtDT0=    0
 Symmetry not used in FoFCou.
 Harris En= -4561.42628155177    
 JPrj=0 DoOrth=F DoCkMO=F.
 Initial guess <Sx>= 0.0000 <Sy>= 0.0000 <Sz>= 1.0000 <S**2>= 2.0000 S= 1.0000
 Leave Link  401 at Tue Jun 20 11:01:00 2017, MaxMem=    33554432 cpu:        56.7
 (Enter /sw/chem/g09/l502.exe)
 UHF open shell SCF:
 Using DIIS extrapolation, IDIIS=  1040.
 Two-electron integral symmetry not used.
 IVT=     1062146 IEndB=     1062146 NGot=    33554432 MDV=    33010059
 LenX=    33010059 LenY=    32743287
 Requested convergence on RMS density matrix=1.00D-08 within 500 cycles.
 Requested convergence on MAX density matrix=1.00D-06.
 Requested convergence on             energy=1.00D-06.
 No special actions if energy rises.
 Fock matrices will be formed incrementally for  20 cycles.

 Cycle   1  Pass 1  IDiag  1:
 FoFJK:  IHMeth= 1 ICntrl=       0 DoSepK=T KAlg= 0 I1Cent=   0 FoldK=F
 IRaf=         1 NMat=   1 IRICut=       1 DoRegI=T DoRafI=F ISym2E= 0.
 FoFCou: FMM=F IPFlag=           0 FMFlag=      100000 FMFlg1=           0
         NFxFlg=           0 DoJE=T BraDBF=F KetDBF=F FulRan=T
         wScrn=  0.000000 ICntrl=     500 IOpCl=  0 I1Cent=           0 NGrid=           0
         NMat0=    1 NMatS0=      1 NMatT0=    0 NMatD0=    1 NMtDS0=    0 NMtDT0=    0
 Symmetry not used in FoFCou.
 E= -4645.96444712402    
 DIIS: error= 7.05D-02 at cycle   1 NSaved=   1.
 NSaved= 1 IEnMin= 1 EnMin= -4645.96444712402     IErMin= 1 ErrMin= 7.05D-02
 ErrMax= 7.05D-02  0.00D+00 EMaxC= 1.00D-01 BMatC= 4.17D+01 BMatP= 4.17D+01
 IDIUse=3 WtCom= 2.95D-01 WtEn= 7.05D-01
 Coeff-Com:  0.100D+01
 Coeff-En:   0.100D+01
 Coeff:      0.100D+01
 Gap=     0.026 Goal=   None    Shift=    0.000
 Gap=     0.311 Goal=   None    Shift=    0.000
 GapD=    0.026 DampG=0.250 DampE=0.250 DampFc=0.1250 IDamp=-1.
 Damping current iteration by 1.25D-01
 RMSDP=2.91D-02 MaxDP=3.64D+00              OVMax= 9.58D-01

 Cycle   2  Pass 1  IDiag  1:
 RMSU=  3.05D-03    CP:  9.30D-01
 E= -4649.26963506449     Delta-E=       -3.305187940468 Rises=F Damp=T
 DIIS: error= 4.09D-02 at cycle   2 NSaved=   2.
 NSaved= 2 IEnMin= 2 EnMin= -4649.26963506449     IErMin= 2 ErrMin= 4.09D-02
 ErrMax= 4.09D-02  0.00D+00 EMaxC= 1.00D-01 BMatC= 1.66D+01 BMatP= 4.17D+01
 IDIUse=3 WtCom= 5.91D-01 WtEn= 4.09D-01
 Coeff-Com: -0.114D+01 0.214D+01
 Coeff-En:   0.000D+00 0.100D+01
 Coeff:     -0.673D+00 0.167D+01
 Gap=    -0.095 Goal=   None    Shift=    0.000
 Gap=     0.108 Goal=   None    Shift=    0.000
 RMSDP=1.94D-02 MaxDP=3.20D+00 DE=-3.31D+00 OVMax= 9.41D-01

 Cycle   3  Pass 1  IDiag  1:
 RMSU=  1.08D-02    CP:  4.15D-01  3.00D+00
 E= -4644.55818782489     Delta-E=        4.711447239602 Rises=F Damp=F
 DIIS: error= 2.54D-01 at cycle   3 NSaved=   3.
 NSaved= 3 IEnMin= 2 EnMin= -4649.26963506449     IErMin= 2 ErrMin= 4.09D-02
 ErrMax= 2.54D-01  0.00D+00 EMaxC= 1.00D-01 BMatC= 6.85D+01 BMatP= 1.66D+01
 IDIUse=2 WtCom= 0.00D+00 WtEn= 1.00D+00
 EnCoef did   100 forward-backward iterations
 Coeff-En:   0.520D+00 0.107D-01 0.469D+00
 Coeff:      0.520D+00 0.107D-01 0.469D+00
 Gap=     0.695 Goal=   None    Shift=    0.000
 Gap=     0.132 Goal=   None    Shift=    0.000
 RMSDP=1.06D-02 MaxDP=2.14D+00 DE= 4.71D+00 OVMax= 9.39D-01

 Cycle   4  Pass 1  IDiag  1:
 RMSU=  9.64D-03    CP:  4.28D-01  3.00D+00  5.90D-01
 E= -4607.76558727692     Delta-E=       36.792600547966 Rises=F Damp=F
 DIIS: error= 1.08D-01 at cycle   4 NSaved=   4.
 NSaved= 4 IEnMin= 2 EnMin= -4649.26963506449     IErMin= 2 ErrMin= 4.09D-02
 ErrMax= 1.08D-01  0.00D+00 EMaxC= 1.00D-01 BMatC= 1.56D+02 BMatP= 1.66D+01
 IDIUse=2 WtCom= 0.00D+00 WtEn= 1.00D+00
 EnCoef did   100 forward-backward iterations
 Coeff-En:   0.457D+00 0.689D-02 0.431D+00 0.105D+00
 Coeff:      0.457D+00 0.689D-02 0.431D+00 0.105D+00
 Gap=     0.384 Goal=   None    Shift=    0.000
 Gap=    -0.326 Goal=   None    Shift=    0.000
 RMSDP=1.00D-02 MaxDP=2.29D+00 DE= 3.68D+01 OVMax= 9.91D-01

 Cycle   5  Pass 1  IDiag  1:
 RMSU=  4.29D-03    CP:  4.12D-01  2.85D+00  9.41D-01  1.77D-01
 E= -4651.14103585021     Delta-E=      -43.375448573286 Rises=F Damp=F
 DIIS: error= 5.26D-02 at cycle   5 NSaved=   5.
 NSaved= 5 IEnMin= 5 EnMin= -4651.14103585021     IErMin= 2 ErrMin= 4.09D-02
 ErrMax= 5.26D-02  0.00D+00 EMaxC= 1.00D-01 BMatC= 1.56D+01 BMatP= 1.66D+01
 IDIUse=3 WtCom= 4.74D-01 WtEn= 5.26D-01
 EnCoef did   100 forward-backward iterations
 Coeff-Com: -0.389D+00 0.922D+00 0.132D+00-0.513D-01 0.387D+00
 Coeff-En:   0.211D+00 0.625D-02 0.286D+00 0.000D+00 0.497D+00
 Coeff:     -0.738D-01 0.441D+00 0.213D+00-0.243D-01 0.445D+00
 Gap=     0.212 Goal=   None    Shift=    0.000
 Gap=     0.061 Goal=   None    Shift=    0.000
 RMSDP=3.99D-03 MaxDP=4.19D-01 DE=-4.34D+01 OVMax= 9.91D-01

 Cycle   6  Pass 1  IDiag  1:
 RMSU=  3.21D-03    CP:  4.11D-01  2.75D+00  9.80D-01  4.07D-02  5.60D-01
 E= -4646.93843947916     Delta-E=        4.202596371049 Rises=F Damp=F
 DIIS: error= 7.99D-02 at cycle   6 NSaved=   6.
 NSaved= 6 IEnMin= 5 EnMin= -4651.14103585021     IErMin= 2 ErrMin= 4.09D-02
 ErrMax= 7.99D-02  0.00D+00 EMaxC= 1.00D-01 BMatC= 3.04D+01 BMatP= 1.56D+01
 IDIUse=2 WtCom= 0.00D+00 WtEn= 1.00D+00
 Coeff-En:   0.000D+00 0.000D+00 0.000D+00 0.000D+00 0.610D+00 0.390D+00
 Coeff:      0.000D+00 0.000D+00 0.000D+00 0.000D+00 0.610D+00 0.390D+00
 Gap=     0.036 Goal=   None    Shift=    0.000
 Gap=     0.284 Goal=   None    Shift=    0.000
 RMSDP=3.85D-03 MaxDP=4.02D-01 DE= 4.20D+00 OVMax= 9.69D-01

 Cycle   7  Pass 1  IDiag  1:
 RMSU=  2.50D-03    CP:  4.14D-01  2.76D+00  9.45D-01  1.42D-01  7.84D-01
                    CP:  2.04D-01
 E= -4652.16507922770     Delta-E=       -5.226639748540 Rises=F Damp=F
 DIIS: error= 6.66D-02 at cycle   7 NSaved=   7.
 NSaved= 7 IEnMin= 7 EnMin= -4652.16507922770     IErMin= 2 ErrMin= 4.09D-02
 ErrMax= 6.66D-02  0.00D+00 EMaxC= 1.00D-01 BMatC= 1.00D+01 BMatP= 1.56D+01
 IDIUse=3 WtCom= 4.74D-01 WtEn= 5.26D-01
 EnCoef did    26 forward-backward iterations
 Coeff-Com: -0.347D+00 0.580D+00-0.234D-01-0.296D-01 0.208D+00 0.262D+00
 Coeff-Com:  0.349D+00
 Coeff-En:   0.000D+00 0.000D+00 0.000D+00 0.000D+00 0.242D+00 0.351D+00
 Coeff-En:   0.406D+00
 Coeff:     -0.164D+00 0.275D+00-0.111D-01-0.141D-01 0.226D+00 0.309D+00
 Coeff:      0.379D+00
 Gap=     0.013 Goal=   None    Shift=    0.000
 Gap=     0.024 Goal=   None    Shift=    0.000
 RMSDP=2.83D-03 MaxDP=3.02D-01 DE=-5.23D+00 OVMax= 9.95D-01

 Cycle   8  Pass 1  IDiag  1:
 RMSU=  1.76D-03    CP:  4.11D-01  2.78D+00  9.68D-01  9.21D-02  6.61D-01
                    CP:  5.32D-01  2.79D-01
 E= -4654.14089412636     Delta-E=       -1.975814898660 Rises=F Damp=F
 DIIS: error= 2.56D-02 at cycle   8 NSaved=   8.
 NSaved= 8 IEnMin= 8 EnMin= -4654.14089412636     IErMin= 8 ErrMin= 2.56D-02
 ErrMax= 2.56D-02  0.00D+00 EMaxC= 1.00D-01 BMatC= 2.67D+00 BMatP= 1.00D+01
 IDIUse=3 WtCom= 7.44D-01 WtEn= 2.56D-01
 EnCoef did    12 forward-backward iterations
 Coeff-Com: -0.158D+00 0.235D+00-0.120D-01-0.738D-02 0.103D+00-0.168D-01
 Coeff-Com:  0.208D+00 0.649D+00
 Coeff-En:   0.000D+00 0.000D+00 0.000D+00 0.000D+00 0.109D+00 0.000D+00
 Coeff-En:   0.183D+00 0.708D+00
 Coeff:     -0.117D+00 0.175D+00-0.894D-02-0.549D-02 0.104D+00-0.125D-01
 Coeff:      0.202D+00 0.664D+00
 Gap=     0.064 Goal=   None    Shift=    0.000
 Gap=     0.073 Goal=   None    Shift=    0.000
 RMSDP=8.31D-04 MaxDP=5.89D-02 DE=-1.98D+00 OVMax= 1.87D-01

 Cycle   9  Pass 1  IDiag  1:
 RMSU=  7.58D-04    CP:  4.10D-01  2.82D+00  9.60D-01  1.16D-01  6.81D-01
                    CP:  4.75D-01  2.64D-01  9.98D-01
 E= -4654.51362327237     Delta-E=       -0.372729146015 Rises=F Damp=F
 DIIS: error= 1.48D-02 at cycle   9 NSaved=   9.
 NSaved= 9 IEnMin= 9 EnMin= -4654.51362327237     IErMin= 9 ErrMin= 1.48D-02
 ErrMax= 1.48D-02  0.00D+00 EMaxC= 1.00D-01 BMatC= 1.05D+00 BMatP= 2.67D+00
 IDIUse=3 WtCom= 8.52D-01 WtEn= 1.48D-01
 EnCoef did    11 forward-backward iterations
 Coeff-Com: -0.506D-01 0.852D-01 0.267D-02-0.431D-02 0.907D-01-0.399D-01
 Coeff-Com:  0.855D-01-0.166D+00 0.997D+00
 Coeff-En:   0.000D+00 0.000D+00 0.000D+00 0.000D+00 0.949D-01 0.000D+00
 Coeff-En:   0.861D-01 0.000D+00 0.819D+00
 Coeff:     -0.431D-01 0.726D-01 0.228D-02-0.367D-02 0.914D-01-0.340D-01
 Coeff:      0.856D-01-0.142D+00 0.971D+00
 Gap=     0.048 Goal=   None    Shift=    0.000
 Gap=     0.011 Goal=   None    Shift=    0.000
 RMSDP=9.84D-04 MaxDP=1.04D-01 DE=-3.73D-01 OVMax= 5.87D-01

 Cycle  10  Pass 1  IDiag  1:
 RMSU=  7.30D-04    CP:  4.09D-01  2.85D+00  9.51D-01  1.35D-01  7.24D-01
                    CP:  3.66D-01  2.80D-01  8.45D-01  1.52D+00
 E= -4654.82066391217     Delta-E=       -0.307040639796 Rises=F Damp=F
 DIIS: error= 4.76D-03 at cycle  10 NSaved=  10.
 NSaved=10 IEnMin=10 EnMin= -4654.82066391217     IErMin=10 ErrMin= 4.76D-03
 ErrMax= 4.76D-03  0.00D+00 EMaxC= 1.00D-01 BMatC= 4.03D-02 BMatP= 1.05D+00
 IDIUse=3 WtCom= 9.52D-01 WtEn= 4.76D-02
 Coeff-Com: -0.281D-01 0.405D-01-0.373D-02-0.827D-03 0.940D-03 0.706D-02
 Coeff-Com:  0.312D-01-0.274D-01 0.139D+00 0.841D+00
 Coeff-En:   0.000D+00 0.000D+00 0.000D+00 0.000D+00 0.000D+00 0.000D+00
 Coeff-En:   0.000D+00 0.000D+00 0.000D+00 0.100D+01
 Coeff:     -0.268D-01 0.385D-01-0.355D-02-0.787D-03 0.895D-03 0.672D-02
 Coeff:      0.297D-01-0.261D-01 0.133D+00 0.849D+00
 Gap=     0.166 Goal=   None    Shift=    0.000
 Gap=     0.102 Goal=   None    Shift=    0.000
 RMSDP=7.42D-04 MaxDP=7.67D-02 DE=-3.07D-01 OVMax= 4.72D-01

 Cycle  11  Pass 1  IDiag  1:
 RMSU=  6.44D-04    CP:  4.09D-01  2.85D+00  9.47D-01  1.41D-01  7.50D-01
                    CP:  3.41D-01  3.22D-01  7.02D-01  1.43D+00  1.24D+00
 E= -4654.87629418489     Delta-E=       -0.055630272724 Rises=F Damp=F
 DIIS: error= 6.85D-03 at cycle  11 NSaved=  11.
 NSaved=11 IEnMin=11 EnMin= -4654.87629418489     IErMin=10 ErrMin= 4.76D-03
 ErrMax= 6.85D-03  0.00D+00 EMaxC= 1.00D-01 BMatC= 2.06D-01 BMatP= 4.03D-02
 IDIUse=3 WtCom= 9.52D-01 WtEn= 4.76D-02
 Coeff-Com: -0.190D-01 0.271D-01-0.223D-02-0.108D-02-0.627D-02 0.589D-02
 Coeff-Com:  0.985D-02 0.356D-01 0.131D+00 0.360D+00 0.460D+00
 Coeff-En:   0.000D+00 0.000D+00 0.000D+00 0.000D+00 0.000D+00 0.000D+00
 Coeff-En:   0.000D+00 0.000D+00 0.000D+00 0.000D+00 0.100D+01
 Coeff:     -0.181D-01 0.258D-01-0.212D-02-0.103D-02-0.597D-02 0.561D-02
 Coeff:      0.938D-02 0.339D-01 0.124D+00 0.343D+00 0.485D+00
 Gap=     0.239 Goal=   None    Shift=    0.000
 Gap=     0.223 Goal=   None    Shift=    0.000
 RMSDP=2.57D-04 MaxDP=1.62D-02 DE=-5.56D-02 OVMax= 1.05D-01

 Cycle  12  Pass 1  IDiag  1:
 RMSU=  1.42D-04    CP:  4.09D-01  2.85D+00  9.49D-01  1.37D-01  7.51D-01
                    CP:  3.52D-01  3.23D-01  6.80D-01  1.23D+00  1.22D+00
                    CP:  1.21D+00
 E= -4654.90593010217     Delta-E=       -0.029635917283 Rises=F Damp=F
 DIIS: error= 5.42D-03 at cycle  12 NSaved=  12.
 NSaved=12 IEnMin=12 EnMin= -4654.90593010217     IErMin=10 ErrMin= 4.76D-03
 ErrMax= 5.42D-03  0.00D+00 EMaxC= 1.00D-01 BMatC= 1.19D-01 BMatP= 4.03D-02
 IDIUse=3 WtCom= 9.52D-01 WtEn= 4.76D-02
 Coeff-Com: -0.561D-02 0.888D-02-0.816D-03-0.841D-03-0.747D-02 0.327D-02
 Coeff-Com: -0.349D-02 0.108D-01 0.208D+00-0.915D-01-0.955D-01 0.974D+00
 Coeff-En:   0.000D+00 0.000D+00 0.000D+00 0.000D+00 0.000D+00 0.000D+00
 Coeff-En:   0.000D+00 0.000D+00 0.000D+00 0.000D+00 0.000D+00 0.100D+01
 Coeff:     -0.535D-02 0.845D-02-0.777D-03-0.801D-03-0.712D-02 0.312D-02
 Coeff:     -0.332D-02 0.103D-01 0.198D+00-0.871D-01-0.910D-01 0.976D+00
 Gap=     0.313 Goal=   None    Shift=    0.000
 Gap=     0.274 Goal=   None    Shift=    0.000
 RMSDP=2.70D-04 MaxDP=1.70D-02 DE=-2.96D-02 OVMax= 9.03D-02

 Cycle  13  Pass 1  IDiag  1:
 RMSU=  1.05D-04    CP:  4.09D-01  2.84D+00  9.50D-01  1.31D-01  7.51D-01
                    CP:  3.70D-01  3.28D-01  6.61D-01  1.03D+00  1.14D+00
                    CP:  1.40D+00  1.72D+00
 E= -4654.92772224136     Delta-E=       -0.021792139181 Rises=F Damp=F
 DIIS: error= 3.54D-03 at cycle  13 NSaved=  13.
 NSaved=13 IEnMin=13 EnMin= -4654.92772224136     IErMin=13 ErrMin= 3.54D-03
 ErrMax= 3.54D-03  0.00D+00 EMaxC= 1.00D-01 BMatC= 5.00D-02 BMatP= 4.03D-02
 IDIUse=3 WtCom= 9.52D-01 WtEn= 4.76D-02
 Coeff-Com:  0.160D-02-0.105D-02-0.144D-02 0.229D-04-0.104D-01 0.419D-02
 Coeff-Com: -0.114D-02 0.119D-02 0.668D-01 0.216D-01-0.341D+00-0.101D-01
 Coeff-Com:  0.127D+01
 Coeff-En:   0.000D+00 0.000D+00 0.000D+00 0.000D+00 0.000D+00 0.000D+00
 Coeff-En:   0.000D+00 0.000D+00 0.000D+00 0.000D+00 0.000D+00 0.000D+00
 Coeff-En:   0.100D+01
 Coeff:      0.152D-02-0.997D-03-0.137D-02 0.218D-04-0.992D-02 0.399D-02
 Coeff:     -0.108D-02 0.114D-02 0.637D-01 0.206D-01-0.325D+00-0.964D-02
 Coeff:      0.126D+01
 Gap=     0.339 Goal=   None    Shift=    0.000
 Gap=     0.304 Goal=   None    Shift=    0.000
 RMSDP=2.22D-04 MaxDP=1.54D-02 DE=-2.18D-02 OVMax= 3.75D-02

 Cycle  14  Pass 1  IDiag  1:
 RMSU=  7.57D-05    CP:  4.09D-01  2.83D+00  9.52D-01  1.26D-01  7.51D-01
                    CP:  3.92D-01  3.36D-01  6.50D-01  8.64D-01  1.10D+00
                    CP:  1.46D+00  2.45D+00  1.77D+00
 E= -4654.93918487212     Delta-E=       -0.011462630770 Rises=F Damp=F
 DIIS: error= 1.62D-03 at cycle  14 NSaved=  14.
 NSaved=14 IEnMin=14 EnMin= -4654.93918487212     IErMin=14 ErrMin= 1.62D-03
 ErrMax= 1.62D-03  0.00D+00 EMaxC= 1.00D-01 BMatC= 6.98D-03 BMatP= 4.03D-02
 IDIUse=3 WtCom= 9.84D-01 WtEn= 1.62D-02
 Coeff-Com:  0.179D-02-0.164D-02-0.450D-03-0.103D-04-0.268D-02 0.754D-03
 Coeff-Com:  0.257D-02 0.208D-01-0.597D-01 0.189D+00 0.425D-01-0.655D+00
 Coeff-Com:  0.455D+00 0.101D+01
 Coeff-En:   0.000D+00 0.000D+00 0.000D+00 0.000D+00 0.000D+00 0.000D+00
 Coeff-En:   0.000D+00 0.000D+00 0.000D+00 0.000D+00 0.000D+00 0.000D+00
 Coeff-En:   0.000D+00 0.100D+01
 Coeff:      0.176D-02-0.161D-02-0.443D-03-0.102D-04-0.264D-02 0.742D-03
 Coeff:      0.252D-02 0.205D-01-0.588D-01 0.186D+00 0.418D-01-0.644D+00
 Coeff:      0.447D+00 0.101D+01
 Gap=     0.312 Goal=   None    Shift=    0.000
 Gap=     0.309 Goal=   None    Shift=    0.000
 RMSDP=1.08D-04 MaxDP=7.53D-03 DE=-1.15D-02 OVMax= 1.85D-02

 Cycle  15  Pass 1  IDiag  1:
 RMSU=  4.24D-05    CP:  4.09D-01  2.83D+00  9.53D-01  1.24D-01  7.50D-01
                    CP:  4.00D-01  3.39D-01  6.49D-01  7.92D-01  1.11D+00
                    CP:  1.44D+00  2.68D+00  2.34D+00  1.27D+00
 E= -4654.94127588695     Delta-E=       -0.002091014823 Rises=F Damp=F
 DIIS: error= 7.40D-04 at cycle  15 NSaved=  15.
 NSaved=15 IEnMin=15 EnMin= -4654.94127588695     IErMin=15 ErrMin= 7.40D-04
 ErrMax= 7.40D-04  0.00D+00 EMaxC= 1.00D-01 BMatC= 1.37D-03 BMatP= 6.98D-03
 IDIUse=3 WtCom= 9.93D-01 WtEn= 7.40D-03
 Coeff-Com:  0.171D-02-0.212D-02 0.912D-04 0.461D-04-0.154D-03-0.203D-03
 Coeff-Com:  0.747D-03 0.992D-02-0.264D-01 0.700D-01 0.631D-01-0.279D+00
 Coeff-Com: -0.143D-01 0.393D+00 0.784D+00
 Coeff-En:   0.000D+00 0.000D+00 0.000D+00 0.000D+00 0.000D+00 0.000D+00
 Coeff-En:   0.000D+00 0.000D+00 0.000D+00 0.000D+00 0.000D+00 0.000D+00
 Coeff-En:   0.000D+00 0.000D+00 0.100D+01
 Coeff:      0.170D-02-0.211D-02 0.905D-04 0.457D-04-0.153D-03-0.202D-03
 Coeff:      0.741D-03 0.985D-02-0.262D-01 0.695D-01 0.627D-01-0.277D+00
 Coeff:     -0.142D-01 0.390D+00 0.786D+00
 Gap=     0.307 Goal=   None    Shift=    0.000
 Gap=     0.315 Goal=   None    Shift=    0.000
 RMSDP=5.13D-05 MaxDP=3.86D-03 DE=-2.09D-03 OVMax= 1.16D-02

 Cycle  16  Pass 1  IDiag  1:
 RMSU=  1.91D-05    CP:  4.09D-01  2.83D+00  9.53D-01  1.23D-01  7.50D-01
                    CP:  4.03D-01  3.40D-01  6.47D-01  7.61D-01  1.11D+00
                    CP:  1.44D+00  2.81D+00  2.55D+00  1.52D+00  1.34D+00
 E= -4654.94185232756     Delta-E=       -0.000576440612 Rises=F Damp=F
 DIIS: error= 3.05D-04 at cycle  16 NSaved=  16.
 NSaved=16 IEnMin=16 EnMin= -4654.94185232756     IErMin=16 ErrMin= 3.05D-04
 ErrMax= 3.05D-04  0.00D+00 EMaxC= 1.00D-01 BMatC= 1.85D-04 BMatP= 1.37D-03
 IDIUse=3 WtCom= 9.97D-01 WtEn= 3.05D-03
 Coeff-Com:  0.498D-03-0.726D-03-0.215D-04 0.595D-04 0.297D-03-0.295D-03
 Coeff-Com:  0.115D-03-0.155D-02 0.668D-02-0.300D-01 0.738D-02 0.709D-01
 Coeff-Com: -0.133D+00-0.158D+00 0.268D+00 0.970D+00
 Coeff-En:   0.000D+00 0.000D+00 0.000D+00 0.000D+00 0.000D+00 0.000D+00
 Coeff-En:   0.000D+00 0.000D+00 0.000D+00 0.000D+00 0.000D+00 0.000D+00
 Coeff-En:   0.000D+00 0.000D+00 0.000D+00 0.100D+01
 Coeff:      0.496D-03-0.724D-03-0.214D-04 0.593D-04 0.296D-03-0.294D-03
 Coeff:      0.115D-03-0.155D-02 0.666D-02-0.299D-01 0.735D-02 0.707D-01
 Coeff:     -0.133D+00-0.158D+00 0.267D+00 0.970D+00
 Gap=     0.303 Goal=   None    Shift=    0.000
 Gap=     0.320 Goal=   None    Shift=    0.000
 RMSDP=4.45D-05 MaxDP=3.85D-03 DE=-5.76D-04 OVMax= 1.13D-02

 Cycle  17  Pass 1  IDiag  1:
 RMSU=  1.36D-05    CP:  4.09D-01  2.83D+00  9.53D-01  1.22D-01  7.49D-01
                    CP:  4.06D-01  3.42D-01  6.45D-01  7.38D-01  1.10D+00
                    CP:  1.45D+00  2.90D+00  2.72D+00  1.74D+00  1.82D+00
                    CP:  1.65D+00
 E= -4654.94208080825     Delta-E=       -0.000228480687 Rises=F Damp=F
 DIIS: error= 2.35D-04 at cycle  17 NSaved=  17.
 NSaved=17 IEnMin=17 EnMin= -4654.94208080825     IErMin=17 ErrMin= 2.35D-04
 ErrMax= 2.35D-04  0.00D+00 EMaxC= 1.00D-01 BMatC= 1.90D-04 BMatP= 1.85D-04
 IDIUse=3 WtCom= 9.98D-01 WtEn= 2.35D-03
 Coeff-Com:  0.467D-04 0.380D-05-0.179D-03 0.195D-04 0.159D-03-0.297D-03
 Coeff-Com:  0.438D-03-0.355D-02 0.111D-01-0.330D-01-0.253D-01 0.137D+00
 Coeff-Com:  0.132D-02-0.196D+00-0.225D+00 0.248D+00 0.109D+01
 Coeff-En:   0.000D+00 0.000D+00 0.000D+00 0.000D+00 0.000D+00 0.000D+00
 Coeff-En:   0.000D+00 0.000D+00 0.000D+00 0.000D+00 0.000D+00 0.000D+00
 Coeff-En:   0.000D+00 0.000D+00 0.000D+00 0.000D+00 0.100D+01
 Coeff:      0.466D-04 0.379D-05-0.179D-03 0.194D-04 0.159D-03-0.296D-03
 Coeff:      0.437D-03-0.354D-02 0.111D-01-0.329D-01-0.252D-01 0.136D+00
 Coeff:      0.131D-02-0.196D+00-0.225D+00 0.248D+00 0.109D+01
 Gap=     0.303 Goal=   None    Shift=    0.000
 Gap=     0.320 Goal=   None    Shift=    0.000
 RMSDP=2.76D-05 MaxDP=2.33D-03 DE=-2.28D-04 OVMax= 7.06D-03

 Cycle  18  Pass 1  IDiag  1:
 RMSU=  7.88D-06    CP:  4.09D-01  2.83D+00  9.53D-01  1.22D-01  7.49D-01
                    CP:  4.05D-01  3.42D-01  6.44D-01  7.39D-01  1.10D+00
                    CP:  1.45D+00  2.92D+00  2.76D+00  1.83D+00  2.20D+00
                    CP:  2.46D+00  1.78D+00
 E= -4654.94221837644     Delta-E=       -0.000137568195 Rises=F Damp=F
 DIIS: error= 1.96D-04 at cycle  18 NSaved=  18.
 NSaved=18 IEnMin=18 EnMin= -4654.94221837644     IErMin=18 ErrMin= 1.96D-04
 ErrMax= 1.96D-04  0.00D+00 EMaxC= 1.00D-01 BMatC= 1.36D-04 BMatP= 1.85D-04
 IDIUse=3 WtCom= 9.98D-01 WtEn= 1.96D-03
 Coeff-Com:  0.602D-03-0.744D-03-0.187D-03-0.398D-05-0.430D-04-0.182D-03
 Coeff-Com:  0.614D-03-0.639D-03 0.211D-02 0.117D-02-0.223D-01 0.493D-01
 Coeff-Com:  0.106D+00-0.173D-01-0.300D+00-0.485D+00 0.443D+00 0.122D+01
 Coeff-En:   0.000D+00 0.000D+00 0.000D+00 0.000D+00 0.000D+00 0.000D+00
 Coeff-En:   0.000D+00 0.000D+00 0.000D+00 0.000D+00 0.000D+00 0.000D+00
 Coeff-En:   0.000D+00 0.000D+00 0.000D+00 0.000D+00 0.000D+00 0.100D+01
 Coeff:      0.601D-03-0.743D-03-0.186D-03-0.397D-05-0.429D-04-0.181D-03
 Coeff:      0.613D-03-0.638D-03 0.210D-02 0.117D-02-0.223D-01 0.492D-01
 Coeff:      0.106D+00-0.173D-01-0.299D+00-0.484D+00 0.442D+00 0.122D+01
 Gap=     0.305 Goal=   None    Shift=    0.000
 Gap=     0.318 Goal=   None    Shift=    0.000
 RMSDP=3.42D-05 MaxDP=2.59D-03 DE=-1.38D-04 OVMax= 9.43D-03

 Cycle  19  Pass 1  IDiag  1:
 RMSU=  1.07D-05    CP:  4.09D-01  2.83D+00  9.53D-01  1.23D-01  7.48D-01
                    CP:  4.04D-01  3.41D-01  6.44D-01  7.52D-01  1.10D+00
                    CP:  1.45D+00  2.91D+00  2.75D+00  1.90D+00  2.58D+00
                    CP:  3.00D+00  2.97D+00  2.13D+00
 E= -4654.94235350044     Delta-E=       -0.000135123997 Rises=F Damp=F
 DIIS: error= 8.22D-05 at cycle  19 NSaved=  19.
 NSaved=19 IEnMin=19 EnMin= -4654.94235350044     IErMin=19 ErrMin= 8.22D-05
 ErrMax= 8.22D-05  0.00D+00 EMaxC= 1.00D-01 BMatC= 2.15D-05 BMatP= 1.36D-04
 IDIUse=1 WtCom= 1.00D+00 WtEn= 0.00D+00
 Coeff-Com:  0.653D-03-0.817D-03-0.747D-04-0.173D-04-0.138D-03-0.711D-04
 Coeff-Com:  0.391D-03 0.597D-03-0.111D-02 0.511D-02-0.436D-02-0.192D-02
 Coeff-Com:  0.287D-01 0.231D-01-0.608D-01-0.232D+00-0.173D+00 0.460D+00
 Coeff-Com:  0.955D+00
 Coeff:      0.653D-03-0.817D-03-0.747D-04-0.173D-04-0.138D-03-0.711D-04
 Coeff:      0.391D-03 0.597D-03-0.111D-02 0.511D-02-0.436D-02-0.192D-02
 Coeff:      0.287D-01 0.231D-01-0.608D-01-0.232D+00-0.173D+00 0.460D+00
 Coeff:      0.955D+00
 Gap=     0.305 Goal=   None    Shift=    0.000
 Gap=     0.318 Goal=   None    Shift=    0.000
 RMSDP=2.18D-05 MaxDP=2.01D-03 DE=-1.35D-04 OVMax= 7.51D-03

 Cycle  20  Pass 1  IDiag  1:
 RMSU=  1.15D-05    CP:  4.09D-01  2.83D+00  9.53D-01  1.23D-01  7.48D-01
                    CP:  4.03D-01  3.41D-01  6.43D-01  7.55D-01  1.10D+00
                    CP:  1.45D+00  2.92D+00  2.77D+00  1.95D+00  2.81D+00
                    CP:  3.00D+00  3.00D+00  3.00D+00  2.12D+00
 E= -4654.94241370399     Delta-E=       -0.000060203552 Rises=F Damp=F
 DIIS: error= 7.80D-05 at cycle  20 NSaved=  20.
 NSaved=20 IEnMin=20 EnMin= -4654.94241370399     IErMin=20 ErrMin= 7.80D-05
 ErrMax= 7.80D-05  0.00D+00 EMaxC= 1.00D-01 BMatC= 1.54D-05 BMatP= 2.15D-05
 IDIUse=1 WtCom= 1.00D+00 WtEn= 0.00D+00
 Coeff-Com:  0.287D-03-0.330D-03-0.235D-04-0.237D-04-0.983D-04-0.282D-04
 Coeff-Com:  0.187D-03 0.334D-03-0.283D-03-0.127D-02 0.324D-02-0.379D-02
 Coeff-Com: -0.281D-01-0.239D-02 0.473D-01 0.596D-01-0.125D+00-0.197D+00
 Coeff-Com:  0.349D+00 0.898D+00
 Coeff:      0.287D-03-0.330D-03-0.235D-04-0.237D-04-0.983D-04-0.282D-04
 Coeff:      0.187D-03 0.334D-03-0.283D-03-0.127D-02 0.324D-02-0.379D-02
 Coeff:     -0.281D-01-0.239D-02 0.473D-01 0.596D-01-0.125D+00-0.197D+00
 Coeff:      0.349D+00 0.898D+00
 Gap=     0.305 Goal=   None    Shift=    0.000
 Gap=     0.318 Goal=   None    Shift=    0.000
 RMSDP=1.35D-05 MaxDP=1.49D-03 DE=-6.02D-05 OVMax= 5.49D-03

 Cycle  21  Pass 1  IDiag  1:
 Restarting incremental Fock formation.
 E= -4654.94244932084     Delta-E=       -0.000035616844 Rises=F Damp=F
 DIIS: error= 7.71D-05 at cycle  21 NSaved=  20.
 NSaved=20 IEnMin=20 EnMin= -4654.94244932084     IErMin=20 ErrMin= 7.71D-05
 ErrMax= 7.71D-05  0.00D+00 EMaxC= 1.00D-01 BMatC= 1.01D-05 BMatP= 1.54D-05
 IDIUse=1 WtCom= 1.00D+00 WtEn= 0.00D+00
 Coeff-Com:  0.322D-04-0.515D-04-0.208D-05 0.323D-04 0.475D-05-0.758D-04
 Coeff-Com:  0.558D-04-0.337D-06 0.613D-03 0.319D-02-0.401D-02-0.678D-02
 Coeff-Com:  0.513D-02 0.155D-01 0.367D-01 0.117D+00-0.140D+00-0.435D+00
 Coeff-Com:  0.419D-01 0.136D+01
 Coeff:      0.322D-04-0.515D-04-0.208D-05 0.323D-04 0.475D-05-0.758D-04
 Coeff:      0.558D-04-0.337D-06 0.613D-03 0.319D-02-0.401D-02-0.678D-02
 Coeff:      0.513D-02 0.155D-01 0.367D-01 0.117D+00-0.140D+00-0.435D+00
 Coeff:      0.419D-01 0.136D+01
 Gap=     0.305 Goal=   None    Shift=    0.000
 Gap=     0.318 Goal=   None    Shift=    0.000
 RMSDP=1.53D-05 MaxDP=2.03D-03 DE=-3.56D-05 OVMax= 6.97D-03

 Cycle  22  Pass 1  IDiag  1:
 RMSU=  1.53D-05    CP:  1.00D+00
 E= -4654.94249152362     Delta-E=       -0.000042202786 Rises=F Damp=F
 DIIS: error= 8.05D-05 at cycle  22 NSaved=  20.
 NSaved=20 IEnMin=20 EnMin= -4654.94249152362     IErMin=19 ErrMin= 7.71D-05
 ErrMax= 8.05D-05  0.00D+00 EMaxC= 1.00D-01 BMatC= 9.54D-06 BMatP= 1.01D-05
 IDIUse=1 WtCom= 1.00D+00 WtEn= 0.00D+00
 Coeff-Com: -0.116D-03 0.140D-03 0.351D-04 0.344D-04-0.280D-04 0.145D-03
 Coeff-Com: -0.411D-03 0.209D-02 0.472D-03-0.443D-02 0.848D-02 0.983D-02
 Coeff-Com: -0.142D-01-0.354D-01 0.681D-01 0.429D-01-0.189D+00-0.166D+00
 Coeff-Com:  0.471D+00 0.806D+00
 Coeff:     -0.116D-03 0.140D-03 0.351D-04 0.344D-04-0.280D-04 0.145D-03
 Coeff:     -0.411D-03 0.209D-02 0.472D-03-0.443D-02 0.848D-02 0.983D-02
 Coeff:     -0.142D-01-0.354D-01 0.681D-01 0.429D-01-0.189D+00-0.166D+00
 Coeff:      0.471D+00 0.806D+00
 Gap=     0.305 Goal=   None    Shift=    0.000
 Gap=     0.318 Goal=   None    Shift=    0.000
 RMSDP=8.12D-06 MaxDP=1.13D-03 DE=-4.22D-05 OVMax= 3.81D-03

 Cycle  23  Pass 1  IDiag  1:
 RMSU=  1.70D-06    CP:  1.00D+00  1.52D+00
 E= -4654.94251412702     Delta-E=       -0.000022603401 Rises=F Damp=F
 DIIS: error= 7.92D-05 at cycle  23 NSaved=  20.
 NSaved=20 IEnMin=20 EnMin= -4654.94251412702     IErMin=18 ErrMin= 7.71D-05
 ErrMax= 7.92D-05  0.00D+00 EMaxC= 1.00D-01 BMatC= 9.44D-06 BMatP= 9.54D-06
 IDIUse=1 WtCom= 1.00D+00 WtEn= 0.00D+00
 Coeff-Com: -0.269D-04 0.220D-04 0.326D-04 0.285D-04 0.170D-03-0.579D-03
 Coeff-Com:  0.187D-02-0.522D-03-0.512D-02 0.761D-02 0.964D-02-0.121D-01
 Coeff-Com: -0.492D-01-0.222D-01 0.970D-01 0.857D-01-0.527D-01-0.156D+00
 Coeff-Com:  0.377D-01 0.106D+01
 Coeff:     -0.269D-04 0.220D-04 0.326D-04 0.285D-04 0.170D-03-0.579D-03
 Coeff:      0.187D-02-0.522D-03-0.512D-02 0.761D-02 0.964D-02-0.121D-01
 Coeff:     -0.492D-01-0.222D-01 0.970D-01 0.857D-01-0.527D-01-0.156D+00
 Coeff:      0.377D-01 0.106D+01
 Gap=     0.305 Goal=   None    Shift=    0.000
 Gap=     0.318 Goal=   None    Shift=    0.000
 RMSDP=8.26D-06 MaxDP=1.16D-03 DE=-2.26D-05 OVMax= 3.91D-03

 Cycle  24  Pass 1  IDiag  1:
 RMSU=  1.22D-06    CP:  1.00D+00  2.03D+00  2.39D+00
 E= -4654.94253722744     Delta-E=       -0.000023100421 Rises=F Damp=F
 DIIS: error= 7.99D-05 at cycle  24 NSaved=  20.
 NSaved=20 IEnMin=20 EnMin= -4654.94253722744     IErMin=17 ErrMin= 7.71D-05
 ErrMax= 7.99D-05  0.00D+00 EMaxC= 1.00D-01 BMatC= 8.95D-06 BMatP= 9.44D-06
 IDIUse=1 WtCom= 1.00D+00 WtEn= 0.00D+00
 Coeff-Com:  0.941D-06 0.370D-04 0.146D-04 0.990D-04-0.181D-03 0.922D-03
 Coeff-Com:  0.424D-03-0.218D-02 0.168D-02 0.206D-02-0.522D-02-0.125D-01
 Coeff-Com: -0.387D-02 0.422D-01 0.116D-01-0.101D+00-0.294D+00-0.330D+00
 Coeff-Com:  0.483D+00 0.121D+01
 Coeff:      0.941D-06 0.370D-04 0.146D-04 0.990D-04-0.181D-03 0.922D-03
 Coeff:      0.424D-03-0.218D-02 0.168D-02 0.206D-02-0.522D-02-0.125D-01
 Coeff:     -0.387D-02 0.422D-01 0.116D-01-0.101D+00-0.294D+00-0.330D+00
 Coeff:      0.483D+00 0.121D+01
 Gap=     0.305 Goal=   None    Shift=    0.000
 Gap=     0.317 Goal=   None    Shift=    0.000
 RMSDP=2.05D-05 MaxDP=2.90D-03 DE=-2.31D-05 OVMax= 9.73D-03

 Cycle  25  Pass 1  IDiag  1:
 RMSU=  6.10D-06    CP:  1.00D+00  3.00D+00  3.00D+00  2.19D+00
 E= -4654.94259402365     Delta-E=       -0.000056796207 Rises=F Damp=F
 DIIS: error= 7.94D-05 at cycle  25 NSaved=  20.
 NSaved=20 IEnMin=20 EnMin= -4654.94259402365     IErMin=16 ErrMin= 7.71D-05
 ErrMax= 7.94D-05  0.00D+00 EMaxC= 1.00D-01 BMatC= 8.67D-06 BMatP= 8.95D-06
 IDIUse=1 WtCom= 1.00D+00 WtEn= 0.00D+00
 Coeff-Com:  0.207D-04 0.430D-04 0.959D-04-0.122D-03 0.692D-03 0.193D-03
 Coeff-Com: -0.115D-02 0.175D-02 0.160D-02-0.416D-02-0.112D-01 0.371D-02
 Coeff-Com:  0.290D-01-0.378D-02-0.573D-01-0.648D-01-0.145D-01 0.287D-01
 Coeff-Com:  0.239D+00 0.853D+00
 Coeff:      0.207D-04 0.430D-04 0.959D-04-0.122D-03 0.692D-03 0.193D-03
 Coeff:     -0.115D-02 0.175D-02 0.160D-02-0.416D-02-0.112D-01 0.371D-02
 Coeff:      0.290D-01-0.378D-02-0.573D-01-0.648D-01-0.145D-01 0.287D-01
 Coeff:      0.239D+00 0.853D+00
 Gap=     0.305 Goal=   None    Shift=    0.000
 Gap=     0.317 Goal=   None    Shift=    0.000
 RMSDP=8.07D-06 MaxDP=1.16D-03 DE=-5.68D-05 OVMax= 3.85D-03

 Cycle  26  Pass 1  IDiag  1:
 RMSU=  2.15D-06    CP:  1.00D+00  3.00D+00  3.00D+00  2.83D+00  2.27D+00
 E= -4654.94261648703     Delta-E=       -0.000022463377 Rises=F Damp=F
 DIIS: error= 7.94D-05 at cycle  26 NSaved=  20.
 NSaved=20 IEnMin=20 EnMin= -4654.94261648703     IErMin=15 ErrMin= 7.71D-05
 ErrMax= 7.94D-05  0.00D+00 EMaxC= 1.00D-01 BMatC= 8.65D-06 BMatP= 8.67D-06
 IDIUse=1 WtCom= 1.00D+00 WtEn= 0.00D+00
 Coeff-Com:  0.495D-04 0.119D-03-0.183D-03 0.790D-03 0.141D-03-0.153D-02
 Coeff-Com:  0.222D-02 0.257D-02-0.349D-02-0.121D-01 0.300D-02 0.234D-01
 Coeff-Com: -0.383D-02-0.341D-01 0.687D-02 0.742D-01-0.714D-01-0.326D-01
 Coeff-Com:  0.544D+00 0.502D+00
 Coeff:      0.495D-04 0.119D-03-0.183D-03 0.790D-03 0.141D-03-0.153D-02
 Coeff:      0.222D-02 0.257D-02-0.349D-02-0.121D-01 0.300D-02 0.234D-01
 Coeff:     -0.383D-02-0.341D-01 0.687D-02 0.742D-01-0.714D-01-0.326D-01
 Coeff:      0.544D+00 0.502D+00
 Gap=     0.305 Goal=   None    Shift=    0.000
 Gap=     0.317 Goal=   None    Shift=    0.000
 RMSDP=4.58D-06 MaxDP=6.61D-04 DE=-2.25D-05 OVMax= 2.18D-03

 Cycle  27  Pass 1  IDiag  1:
 RMSU=  3.23D-07    CP:  1.00D+00  3.00D+00  3.00D+00  3.00D+00  2.99D+00
                    CP:  1.52D+00
 E= -4654.94262923399     Delta-E=       -0.000012746958 Rises=F Damp=F
 DIIS: error= 7.93D-05 at cycle  27 NSaved=  20.
 NSaved=20 IEnMin=20 EnMin= -4654.94262923399     IErMin=14 ErrMin= 7.71D-05
 ErrMax= 7.93D-05  0.00D+00 EMaxC= 1.00D-01 BMatC= 8.66D-06 BMatP= 8.65D-06
 IDIUse=1 WtCom= 1.00D+00 WtEn= 0.00D+00
 Coeff-Com:  0.767D-04-0.103D-03 0.509D-03 0.130D-03-0.906D-03 0.188D-02
 Coeff-Com:  0.190D-02-0.224D-02-0.762D-02 0.805D-02 0.142D-01-0.295D-01
 Coeff-Com: -0.465D-01 0.637D-01 0.108D+00-0.977D-01-0.495D-01 0.604D+00
 Coeff-Com:  0.154D+01-0.110D+01
 Coeff:      0.767D-04-0.103D-03 0.509D-03 0.130D-03-0.906D-03 0.188D-02
 Coeff:      0.190D-02-0.224D-02-0.762D-02 0.805D-02 0.142D-01-0.295D-01
 Coeff:     -0.465D-01 0.637D-01 0.108D+00-0.977D-01-0.495D-01 0.604D+00
 Coeff:      0.154D+01-0.110D+01
 Gap=     0.305 Goal=   None    Shift=    0.000
 Gap=     0.317 Goal=   None    Shift=    0.000
 RMSDP=6.20D-06 MaxDP=8.94D-04 DE=-1.27D-05 OVMax= 2.96D-03

 Cycle  28  Pass 1  IDiag  1:
 RMSU=  1.29D-07    CP:  1.00D+00  3.00D+00  3.00D+00  2.65D+00  2.01D+00
                    CP:  8.57D-01  3.20D-03
 E= -4654.94261194949     Delta-E=        0.000017284492 Rises=F Damp=F
 DIIS: error= 7.95D-05 at cycle  28 NSaved=  20.
 NSaved=20 IEnMin=19 EnMin= -4654.94262923399     IErMin=13 ErrMin= 7.71D-05
 ErrMax= 7.95D-05  0.00D+00 EMaxC= 1.00D-01 BMatC= 8.67D-06 BMatP= 8.65D-06
 IDIUse=1 WtCom= 1.00D+00 WtEn= 0.00D+00
 Coeff-Com:  0.523D-05 0.637D-03-0.165D-03-0.582D-03 0.198D-02 0.148D-02
 Coeff-Com: -0.260D-02-0.121D-01-0.860D-02 0.239D-01 0.444D-01 0.258D-01
 Coeff-Com:  0.545D-01 0.125D+00-0.207D+00-0.598D+00-0.921D-01 0.260D+01
 Coeff-Com: -0.431D+01 0.336D+01
 Coeff:      0.523D-05 0.637D-03-0.165D-03-0.582D-03 0.198D-02 0.148D-02
 Coeff:     -0.260D-02-0.121D-01-0.860D-02 0.239D-01 0.444D-01 0.258D-01
 Coeff:      0.545D-01 0.125D+00-0.207D+00-0.598D+00-0.921D-01 0.260D+01
 Coeff:     -0.431D+01 0.336D+01
 Gap=     0.305 Goal=   None    Shift=    0.000
 Gap=     0.318 Goal=   None    Shift=    0.000
 RMSDP=4.97D-06 MaxDP=7.08D-04 DE= 1.73D-05 OVMax= 2.37D-03

 Cycle  29  Pass 1  IDiag  1:
 RMSU=  5.95D-07    CP:  1.00D+00  3.00D+00  3.00D+00  2.08D+00  1.23D+00
                    CP:  3.66D-01 -1.18D+00  2.67D+00
 E= -4654.94259820756     Delta-E=        0.000013741934 Rises=F Damp=F
 DIIS: error= 7.95D-05 at cycle  29 NSaved=  20.
 NSaved=20 IEnMin=18 EnMin= -4654.94262923399     IErMin=12 ErrMin= 7.71D-05
 ErrMax= 7.95D-05  0.00D+00 EMaxC= 1.00D-01 BMatC= 8.72D-06 BMatP= 8.65D-06
 IDIUse=1 WtCom= 1.00D+00 WtEn= 0.00D+00
 Large coefficients: NSaved= 20 BigCof=   17.80 CofMax=   10.00 Det=-2.48D-10
 Inversion failed.  Reducing to 19 matrices.
 Large coefficients: NSaved= 19 BigCof=   15.82 CofMax=   10.00 Det=-2.61D-10
 Inversion failed.  Reducing to 18 matrices.
 Large coefficients: NSaved= 18 BigCof=   15.86 CofMax=   10.00 Det=-2.62D-10
 Inversion failed.  Reducing to 17 matrices.
 Large coefficients: NSaved= 17 BigCof=   15.38 CofMax=   10.00 Det=-2.68D-10
 Inversion failed.  Reducing to 16 matrices.
 Large coefficients: NSaved= 16 BigCof=   13.83 CofMax=   10.00 Det=-2.99D-10
 Inversion failed.  Reducing to 15 matrices.
 Large coefficients: NSaved= 15 BigCof=   13.32 CofMax=   10.00 Det=-3.03D-10
 Inversion failed.  Reducing to 14 matrices.
 Large coefficients: NSaved= 14 BigCof=   13.54 CofMax=   10.00 Det=-3.05D-10
 Inversion failed.  Reducing to 13 matrices.
 Large coefficients: NSaved= 13 BigCof=   12.55 CofMax=   10.00 Det=-3.21D-10
 Inversion failed.  Reducing to 12 matrices.
 Large coefficients: NSaved= 12 BigCof=   12.61 CofMax=   10.00 Det=-3.46D-10
 Inversion failed.  Reducing to 11 matrices.
 Large coefficients: NSaved= 11 BigCof=   13.21 CofMax=   10.00 Det=-3.57D-10
 Inversion failed.  Reducing to 10 matrices.
 Large coefficients: NSaved= 10 BigCof=   11.20 CofMax=   10.00 Det=-4.31D-10
 Inversion failed.  Reducing to  9 matrices.
 Coeff-Com:  0.205D+00 0.113D+00-0.473D+00-0.610D+00 0.592D+00 0.523D+01
 Coeff-Com: -0.924D+01 0.288D+01 0.230D+01
 Coeff:      0.205D+00 0.113D+00-0.473D+00-0.610D+00 0.592D+00 0.523D+01
 Coeff:     -0.924D+01 0.288D+01 0.230D+01
 Gap=     0.305 Goal=   None    Shift=    0.000
 Gap=     0.318 Goal=   None    Shift=    0.000
 RMSDP=3.51D-05 MaxDP=4.96D-03 DE= 1.37D-05 OVMax= 1.67D-02

 Cycle  30  Pass 1  IDiag  1:
 RMSU=  4.89D-06    CP:  1.00D+00  1.35D+00 -2.14D+00 -8.75D-01 -8.49D-02
                    CP: -2.55D-01 -3.00D+00  3.00D+00  3.00D+00
 E= -4654.94250089720     Delta-E=        0.000097310356 Rises=F Damp=F
 DIIS: error= 7.87D-05 at cycle  30 NSaved=  10.
 NSaved=10 IEnMin= 7 EnMin= -4654.94262923399     IErMin= 1 ErrMin= 7.71D-05
 ErrMax= 7.87D-05  0.00D+00 EMaxC= 1.00D-01 BMatC= 8.59D-06 BMatP= 8.65D-06
 IDIUse=1 WtCom= 1.00D+00 WtEn= 0.00D+00
 Coeff-Com:  0.149D+00-0.857D-01-0.141D+00 0.314D-01-0.515D+00 0.519D+01
 Coeff-Com: -0.921D+01 0.964D+00 0.324D+01 0.138D+01
 Coeff:      0.149D+00-0.857D-01-0.141D+00 0.314D-01-0.515D+00 0.519D+01
 Coeff:     -0.921D+01 0.964D+00 0.324D+01 0.138D+01
 Gap=     0.305 Goal=   None    Shift=    0.000
 Gap=     0.318 Goal=   None    Shift=    0.000
 RMSDP=6.92D-05 MaxDP=9.37D-03 DE= 9.73D-05 OVMax= 3.31D-02

 Cycle  31  Pass 1  IDiag  1:
 RMSU=  1.23D-05    CP:  1.00D+00 -2.82D+00 -3.00D+00 -3.00D+00 -2.03D+00
                    CP:  3.00D+00 -3.00D+00  3.00D+00  3.00D+00  3.00D+00
 E= -4654.94231052306     Delta-E=        0.000190374139 Rises=F Damp=F
 DIIS: error= 7.90D-05 at cycle  31 NSaved=  11.
 NSaved=11 IEnMin= 7 EnMin= -4654.94262923399     IErMin= 1 ErrMin= 7.71D-05
 ErrMax= 7.90D-05  0.00D+00 EMaxC= 1.00D-01 BMatC= 8.86D-06 BMatP= 8.59D-06
 IDIUse=1 WtCom= 1.00D+00 WtEn= 0.00D+00
 Large coefficients: NSaved= 11 BigCof=   12.21 CofMax=   10.00 Det=-3.75D-10
 Inversion failed.  Reducing to 10 matrices.
 Coeff-Com: -0.212D+00-0.259D-01 0.467D+00-0.313D+00 0.550D+01-0.971D+01
 Coeff-Com:  0.267D+00 0.346D+01 0.173D+01-0.162D+00
 Coeff:     -0.212D+00-0.259D-01 0.467D+00-0.313D+00 0.550D+01-0.971D+01
 Coeff:      0.267D+00 0.346D+01 0.173D+01-0.162D+00
 Gap=     0.306 Goal=   None    Shift=    0.000
 Gap=     0.319 Goal=   None    Shift=    0.000
 RMSDP=3.12D-06 MaxDP=4.21D-04 DE= 1.90D-04 OVMax= 1.46D-03

 Cycle  32  Pass 1  IDiag  1:
 RMSU=  5.98D-07    CP:  1.00D+00 -3.00D+00 -3.00D+00 -3.00D+00 -2.14D+00
                    CP:  3.00D+00 -3.00D+00  3.00D+00  3.00D+00  3.00D+00
                    CP:  1.09D+00
 E= -4654.94230204128     Delta-E=        0.000008481784 Rises=F Damp=F
 DIIS: error= 7.95D-05 at cycle  32 NSaved=  11.
 NSaved=11 IEnMin= 6 EnMin= -4654.94262923399     IErMin= 9 ErrMin= 7.87D-05
 ErrMax= 7.95D-05  0.00D+00 EMaxC= 1.00D-01 BMatC= 9.09D-06 BMatP= 8.59D-06
 IDIUse=1 WtCom= 1.00D+00 WtEn= 0.00D+00
 Coeff-Com: -0.351D+00 0.441D-01 0.111D+00 0.424D+00 0.523D+01-0.831D+01
 Coeff-Com:  0.249D+00 0.247D+01 0.480D+00 0.345D+01-0.280D+01
 Coeff:     -0.351D+00 0.441D-01 0.111D+00 0.424D+00 0.523D+01-0.831D+01
 Coeff:      0.249D+00 0.247D+01 0.480D+00 0.345D+01-0.280D+01
 Gap=     0.306 Goal=   None    Shift=    0.000
 Gap=     0.319 Goal=   None    Shift=    0.000
 RMSDP=8.61D-06 MaxDP=1.13D-03 DE= 8.48D-06 OVMax= 4.14D-03

 Cycle  33  Pass 1  IDiag  1:
 RMSU=  4.01D-06    CP:  1.00D+00 -3.00D+00 -3.00D+00 -3.00D+00 -3.00D+00
                    CP:  3.00D+00 -3.00D+00  3.00D+00  3.00D+00  3.00D+00
                    CP:  1.07D+00  1.09D+00
 E= -4654.94227886549     Delta-E=        0.000023175791 Rises=F Damp=F
 DIIS: error= 7.89D-05 at cycle  33 NSaved=  12.
 NSaved=12 IEnMin= 6 EnMin= -4654.94262923399     IErMin= 9 ErrMin= 7.87D-05
 ErrMax= 7.89D-05  0.00D+00 EMaxC= 1.00D-01 BMatC= 8.81D-06 BMatP= 8.59D-06
 IDIUse=1 WtCom= 1.00D+00 WtEn= 0.00D+00
 Large coefficients: NSaved= 12 BigCof=   33.98 CofMax=   10.00 Det=-3.80D-10
 Inversion failed.  Reducing to 11 matrices.
 Large coefficients: NSaved= 11 BigCof=   17.99 CofMax=   10.00 Det=-3.94D-10
 Inversion failed.  Reducing to 10 matrices.
 Large coefficients: NSaved= 10 BigCof=   16.03 CofMax=   10.00 Det=-4.30D-10
 Inversion failed.  Reducing to  9 matrices.
 Large coefficients: NSaved=  9 BigCof=   11.22 CofMax=   10.00 Det=-4.64D-10
 Inversion failed.  Reducing to  8 matrices.
 Coeff-Com: -0.173D+00 0.113D+01 0.642D+01-0.895D+01 0.611D+00 0.159D+01
 Coeff-Com: -0.103D+01 0.140D+01
 Coeff:     -0.173D+00 0.113D+01 0.642D+01-0.895D+01 0.611D+00 0.159D+01
 Coeff:     -0.103D+01 0.140D+01
 Gap=     0.305 Goal=   None    Shift=    0.000
 Gap=     0.318 Goal=   None    Shift=    0.000
 RMSDP=1.98D-05 MaxDP=2.63D-03 DE= 2.32D-05 OVMax= 9.43D-03

 Cycle  34  Pass 1  IDiag  1:
 RMSU=  7.08D-07    CP:  1.00D+00 -2.34D+00 -3.00D+00 -3.00D+00 -1.78D+00
                    CP:  3.00D+00 -3.00D+00  3.00D+00  3.00D+00  3.00D+00
                    CP:  7.71D-01 -2.27D+00 -1.55D-02
 E= -4654.94233267358     Delta-E=       -0.000053808089 Rises=F Damp=F
 DIIS: error= 7.78D-05 at cycle  34 NSaved=   9.
 NSaved= 9 IEnMin= 4 EnMin= -4654.94262923399     IErMin= 9 ErrMin= 7.78D-05
 ErrMax= 7.78D-05  0.00D+00 EMaxC= 1.00D-01 BMatC= 8.60D-06 BMatP= 8.65D-06
 IDIUse=1 WtCom= 1.00D+00 WtEn= 0.00D+00
 Large coefficients: NSaved=  9 BigCof=   21.62 CofMax=   10.00 Det=-5.16D-10
 Inversion failed.  Reducing to  8 matrices.
 Coeff-Com: -0.447D-01-0.103D+01 0.287D+01-0.345D+01 0.357D+00 0.129D+01
 Coeff-Com:  0.335D+00 0.680D+00
 Coeff:     -0.447D-01-0.103D+01 0.287D+01-0.345D+01 0.357D+00 0.129D+01
 Coeff:      0.335D+00 0.680D+00
 Gap=     0.305 Goal=   None    Shift=    0.000
 Gap=     0.318 Goal=   None    Shift=    0.000
 RMSDP=1.58D-05 MaxDP=2.06D-03 DE=-5.38D-05 OVMax= 7.54D-03

 Cycle  35  Pass 1  IDiag  1:
 RMSU=  1.63D-06    CP:  1.00D+00 -3.00D+00 -3.00D+00 -3.00D+00 -2.83D+00
                    CP:  3.00D+00 -3.00D+00  3.00D+00  3.00D+00  3.00D+00
                    CP:  1.10D+00  8.35D-01  3.26D-01  5.91D-01
 E= -4654.94228996281     Delta-E=        0.000042710770 Rises=F Damp=F
 DIIS: error= 7.77D-05 at cycle  35 NSaved=   9.
 NSaved= 9 IEnMin= 4 EnMin= -4654.94262923399     IErMin= 9 ErrMin= 7.77D-05
 ErrMax= 7.77D-05  0.00D+00 EMaxC= 1.00D-01 BMatC= 8.37D-06 BMatP= 8.60D-06
 IDIUse=1 WtCom= 1.00D+00 WtEn= 0.00D+00
 Coeff-Com:  0.202D+01-0.340D+01-0.253D+01-0.248D+01-0.264D+01 0.472D+01
 Coeff-Com: -0.202D+01 0.145D+01 0.589D+01
 Coeff:      0.202D+01-0.340D+01-0.253D+01-0.248D+01-0.264D+01 0.472D+01
 Coeff:     -0.202D+01 0.145D+01 0.589D+01
 Gap=     0.312 Goal=   None    Shift=    0.000
 Gap=     0.325 Goal=   None    Shift=    0.000
 RMSDP=4.77D-04 MaxDP=5.83D-02 DE= 4.27D-05 OVMax= 2.09D-01

 Cycle  36  Pass 1  IDiag  1:
 RMSU=  4.60D-04    CP:  1.00D+00 -3.00D+00 -3.00D+00 -3.00D+00 -3.00D+00
                    CP: -3.00D+00 -3.00D+00  3.00D+00  3.00D+00  3.00D+00
                    CP:  2.67D+00 -3.00D+00  3.00D+00  3.00D+00 -3.00D+00
 E= -4654.94102144629     Delta-E=        0.001268516517 Rises=F Damp=F
 DIIS: error= 5.53D-04 at cycle  36 NSaved=  10.
 NSaved=10 IEnMin= 4 EnMin= -4654.94262923399     IErMin= 9 ErrMin= 7.77D-05
 ErrMax= 5.53D-04  0.00D+00 EMaxC= 1.00D-01 BMatC= 4.71D-04 BMatP= 8.37D-06
 IDIUse=1 WtCom= 1.00D+00 WtEn= 0.00D+00
 Coeff-Com:  0.199D+01-0.391D+01-0.428D+01-0.831D+00-0.365D+01 0.564D+01
 Coeff-Com:  0.957D+00 0.240D+01 0.277D+01-0.795D-01
 Coeff:      0.199D+01-0.391D+01-0.428D+01-0.831D+00-0.365D+01 0.564D+01
 Coeff:      0.957D+00 0.240D+01 0.277D+01-0.795D-01
 Gap=     0.326 Goal=   None    Shift=    0.000
 Gap=     0.323 Goal=   None    Shift=    0.000
 RMSDP=2.49D-05 MaxDP=3.35D-03 DE= 1.27D-03 OVMax= 1.03D-02

 Cycle  37  Pass 1  IDiag  1:
 RMSU=  6.99D-06    CP:  1.00D+00 -3.00D+00 -3.00D+00 -3.00D+00 -3.00D+00
                    CP: -3.00D+00 -3.00D+00  3.00D+00  3.00D+00  3.00D+00
                    CP:  2.92D+00 -3.00D+00  3.00D+00  3.00D+00 -3.00D+00
                    CP:  1.05D+00
 E= -4654.94093158822     Delta-E=        0.000089858073 Rises=F Damp=F
 DIIS: error= 6.52D-04 at cycle  37 NSaved=  11.
 NSaved=11 IEnMin= 4 EnMin= -4654.94262923399     IErMin= 9 ErrMin= 7.77D-05
 ErrMax= 6.52D-04  0.00D+00 EMaxC= 1.00D-01 BMatC= 6.44D-04 BMatP= 8.37D-06
 IDIUse=1 WtCom= 1.00D+00 WtEn= 0.00D+00
 Coeff-Com:  0.241D+01-0.220D+01-0.296D+01-0.240D+01-0.297D+01 0.398D+01
 Coeff-Com: -0.420D+01 0.713D+00 0.827D+01 0.231D+01-0.194D+01
 Coeff:      0.241D+01-0.220D+01-0.296D+01-0.240D+01-0.297D+01 0.398D+01
 Coeff:     -0.420D+01 0.713D+00 0.827D+01 0.231D+01-0.194D+01
 Gap=     0.326 Goal=   None    Shift=    0.000
 Gap=     0.323 Goal=   None    Shift=    0.000
 RMSDP=7.41D-05 MaxDP=1.12D-02 DE= 8.99D-05 OVMax= 3.10D-02

 Cycle  38  Pass 1  IDiag  1:
 RMSU=  1.89D-05    CP:  9.99D-01 -3.00D+00 -3.00D+00 -3.00D+00 -3.00D+00
                    CP: -3.00D+00 -3.00D+00  3.00D+00  3.00D+00  3.00D+00
                    CP:  3.00D+00 -3.00D+00  3.00D+00  3.00D+00 -3.00D+00
                    CP:  1.20D+00  3.00D+00
 E= -4654.94076868233     Delta-E=        0.000162905888 Rises=F Damp=F
 DIIS: error= 7.21D-04 at cycle  38 NSaved=  12.
 NSaved=12 IEnMin= 4 EnMin= -4654.94262923399     IErMin= 9 ErrMin= 7.77D-05
 ErrMax= 7.21D-04  0.00D+00 EMaxC= 1.00D-01 BMatC= 7.57D-04 BMatP= 8.37D-06
 IDIUse=1 WtCom= 1.00D+00 WtEn= 0.00D+00
 Coeff-Com:  0.187D+01-0.232D+01-0.173D+01-0.538D+01-0.266D+01 0.548D+01
 Coeff-Com: -0.201D+01 0.148D+01 0.595D+01 0.251D+01-0.257D+01 0.389D+00
 Coeff:      0.187D+01-0.232D+01-0.173D+01-0.538D+01-0.266D+01 0.548D+01
 Coeff:     -0.201D+01 0.148D+01 0.595D+01 0.251D+01-0.257D+01 0.389D+00
 Gap=     0.326 Goal=   None    Shift=    0.000
 Gap=     0.323 Goal=   None    Shift=    0.000
 RMSDP=5.21D-05 MaxDP=7.79D-03 DE= 1.63D-04 OVMax= 2.21D-02

 Cycle  39  Pass 1  IDiag  1:
 RMSU=  1.60D-05    CP:  9.99D-01 -3.00D+00 -3.00D+00 -3.00D+00 -3.00D+00
                    CP: -3.00D+00 -3.00D+00  3.00D+00  3.00D+00  3.00D+00
                    CP:  3.00D+00 -3.00D+00  3.00D+00  3.00D+00 -3.00D+00
                    CP:  1.31D+00  3.00D+00  1.60D+00
 E= -4654.94060798095     Delta-E=        0.000160701386 Rises=F Damp=F
 DIIS: error= 8.66D-04 at cycle  39 NSaved=  13.
 NSaved=13 IEnMin= 4 EnMin= -4654.94262923399     IErMin= 9 ErrMin= 7.77D-05
 ErrMax= 8.66D-04  0.00D+00 EMaxC= 1.00D-01 BMatC= 1.05D-03 BMatP= 8.37D-06
 IDIUse=1 WtCom= 1.00D+00 WtEn= 0.00D+00
 Large coefficients: NSaved= 13 BigCof=   19.93 CofMax=   10.00 Det=-5.50D-10
 Inversion failed.  Reducing to 12 matrices.
 Coeff-Com:  0.160D+01-0.316D+01-0.265D+01-0.242D+01-0.241D+01 0.489D+01
 Coeff-Com: -0.563D+00 0.177D+01 0.393D+01-0.293D+00 0.987D+00-0.671D+00
 Coeff:      0.160D+01-0.316D+01-0.265D+01-0.242D+01-0.241D+01 0.489D+01
 Coeff:     -0.563D+00 0.177D+01 0.393D+01-0.293D+00 0.987D+00-0.671D+00
 Gap=     0.326 Goal=   None    Shift=    0.000
 Gap=     0.323 Goal=   None    Shift=    0.000
 RMSDP=1.64D-04 MaxDP=2.42D-02 DE= 1.61D-04 OVMax= 6.60D-02

 Cycle  40  Pass 1  IDiag  1:
 RMSU=  6.10D-07    CP:  1.00D+00 -3.00D+00 -3.00D+00 -3.00D+00 -3.00D+00
                    CP: -3.00D+00 -3.00D+00  3.00D+00  3.00D+00  3.00D+00
                    CP:  2.55D+00 -3.00D+00  3.00D+00  3.00D+00 -3.00D+00
                    CP:  9.71D-01 -4.19D-01 -6.01D-02  8.34D-03
 E= -4654.94106032968     Delta-E=       -0.000452348737 Rises=F Damp=F
 DIIS: error= 5.21D-04 at cycle  40 NSaved=  13.
 NSaved=13 IEnMin= 4 EnMin= -4654.94262923399     IErMin= 9 ErrMin= 7.77D-05
 ErrMax= 5.21D-04  0.00D+00 EMaxC= 1.00D-01 BMatC= 4.27D-04 BMatP= 8.37D-06
 IDIUse=1 WtCom= 1.00D+00 WtEn= 0.00D+00
 Coeff-Com:  0.140D+01-0.454D+01-0.244D+01-0.243D+01-0.253D+01 0.552D+01
 Coeff-Com: -0.112D+01 0.187D+01 0.519D+01-0.301D+01 0.457D+00-0.180D+00
 Coeff-Com:  0.281D+01
 Coeff:      0.140D+01-0.454D+01-0.244D+01-0.243D+01-0.253D+01 0.552D+01
 Coeff:     -0.112D+01 0.187D+01 0.519D+01-0.301D+01 0.457D+00-0.180D+00
 Coeff:      0.281D+01
 Gap=     0.326 Goal=   None    Shift=    0.000
 Gap=     0.323 Goal=   None    Shift=    0.000
 RMSDP=6.74D-05 MaxDP=9.59D-03 DE=-4.52D-04 OVMax= 2.82D-02

 Cycle  41  Pass 1  IDiag  1:
 Restarting incremental Fock formation.
 E= -4654.94086540538     Delta-E=        0.000194924305 Rises=F Damp=F
 DIIS: error= 6.84D-04 at cycle  41 NSaved=  14.
 NSaved=14 IEnMin= 4 EnMin= -4654.94262923399     IErMin= 9 ErrMin= 7.77D-05
 ErrMax= 6.84D-04  0.00D+00 EMaxC= 1.00D-01 BMatC= 6.91D-04 BMatP= 8.37D-06
 IDIUse=1 WtCom= 1.00D+00 WtEn= 0.00D+00
 Coeff-Com:  0.172D+01-0.414D+01-0.637D+00-0.412D+01-0.257D+01 0.477D+01
 Coeff-Com: -0.250D+01 0.142D+01 0.698D+01-0.491D+01 0.577D+00-0.418D+00
 Coeff-Com:  0.404D+01 0.788D+00
 Coeff:      0.172D+01-0.414D+01-0.637D+00-0.412D+01-0.257D+01 0.477D+01
 Coeff:     -0.250D+01 0.142D+01 0.698D+01-0.491D+01 0.577D+00-0.418D+00
 Coeff:      0.404D+01 0.788D+00
 Gap=     0.326 Goal=   None    Shift=    0.000
 Gap=     0.323 Goal=   None    Shift=    0.000
 RMSDP=1.02D-05 MaxDP=1.48D-03 DE= 1.95D-04 OVMax= 4.20D-03

 Cycle  42  Pass 1  IDiag  1:
 RMSU=  1.02D-05    CP:  1.00D+00
 E= -4654.94083391290     Delta-E=        0.000031492480 Rises=F Damp=F
 DIIS: error= 7.13D-04 at cycle  42 NSaved=  15.
 NSaved=15 IEnMin= 4 EnMin= -4654.94262923399     IErMin= 9 ErrMin= 7.77D-05
 ErrMax= 7.13D-04  0.00D+00 EMaxC= 1.00D-01 BMatC= 7.46D-04 BMatP= 8.37D-06
 IDIUse=1 WtCom= 1.00D+00 WtEn= 0.00D+00
 Coeff-Com:  0.171D+01-0.414D+01-0.674D+00-0.402D+01-0.259D+01 0.475D+01
 Coeff-Com: -0.251D+01 0.141D+01 0.698D+01-0.494D+01 0.562D+00-0.402D+00
 Coeff-Com:  0.407D+01 0.874D+00-0.863D-01
 Coeff:      0.171D+01-0.414D+01-0.674D+00-0.402D+01-0.259D+01 0.475D+01
 Coeff:     -0.251D+01 0.141D+01 0.698D+01-0.494D+01 0.562D+00-0.402D+00
 Coeff:      0.407D+01 0.874D+00-0.863D-01
 Gap=     0.326 Goal=   None    Shift=    0.000
 Gap=     0.323 Goal=   None    Shift=    0.000
 RMSDP=8.26D-07 MaxDP=1.17D-04 DE= 3.15D-05 OVMax= 3.36D-04

 Cycle  43  Pass 1  IDiag  1:
 RMSU=  9.42D-08    CP:  1.00D+00  9.20D-01
 E= -4654.94083687752     Delta-E=       -0.000002964622 Rises=F Damp=F
 DIIS: error= 7.10D-04 at cycle  43 NSaved=  16.
 NSaved=16 IEnMin= 4 EnMin= -4654.94262923399     IErMin= 9 ErrMin= 7.77D-05
 ErrMax= 7.10D-04  0.00D+00 EMaxC= 1.00D-01 BMatC= 7.40D-04 BMatP= 8.37D-06
 IDIUse=1 WtCom= 1.00D+00 WtEn= 0.00D+00
 Large coefficients: NSaved= 16 BigCof=  102.87 CofMax=   10.00 Det=-2.36D-11
 Inversion failed.  Reducing to 15 matrices.
 Large coefficients: NSaved= 15 BigCof=   89.04 CofMax=   10.00 Det=-3.28D-11
 Inversion failed.  Reducing to 14 matrices.
 Large coefficients: NSaved= 14 BigCof=   82.53 CofMax=   10.00 Det=-3.46D-11
 Inversion failed.  Reducing to 13 matrices.
 Large coefficients: NSaved= 13 BigCof=   60.96 CofMax=   10.00 Det=-4.13D-11
 Inversion failed.  Reducing to 12 matrices.
 Large coefficients: NSaved= 12 BigCof=   35.46 CofMax=   10.00 Det=-4.46D-11
 Inversion failed.  Reducing to 11 matrices.
 Large coefficients: NSaved= 11 BigCof=   46.73 CofMax=   10.00 Det=-1.10D-10
 Inversion failed.  Reducing to 10 matrices.
 Large coefficients: NSaved= 10 BigCof=   24.05 CofMax=   10.00 Det=-3.11D-10
 Inversion failed.  Reducing to  9 matrices.
 Large coefficients: NSaved=  9 BigCof=   44.21 CofMax=   10.00 Det=-3.95D-10
 Inversion failed.  Reducing to  8 matrices.
 Large coefficients: NSaved=  8 BigCof=   47.43 CofMax=   10.00 Det=-4.24D-10
 Inversion failed.  Reducing to  7 matrices.
 Large coefficients: NSaved=  7 BigCof=   45.14 CofMax=   10.00 Det=-4.53D-10
 Inversion failed.  Reducing to  6 matrices.
 Large coefficients: NSaved=  6 BigCof=   44.48 CofMax=   10.00 Det=-4.56D-10
 Inversion failed.  Reducing to  5 matrices.
 Large coefficients: NSaved=  5 BigCof=   44.72 CofMax=   10.00 Det=-4.57D-10
 Inversion failed.  Reducing to  4 matrices.
 Large coefficients: NSaved=  4 BigCof=   44.59 CofMax=   10.00 Det=-4.57D-10
 Inversion failed.  Reducing to  3 matrices.
 Large coefficients: NSaved=  3 BigCof=   43.95 CofMax=   10.00 Det=-4.60D-10
 Inversion failed.  Reducing to  2 matrices.
 Large coefficients: NSaved=  2 BigCof=  234.49 CofMax=   10.00 Det=-1.31D-08
 Coeff-Com: -0.233D+03 0.234D+03
 Coeff:     -0.233D+03 0.234D+03
 Gap=     0.326 Goal=   None    Shift=    0.000
 Gap=     0.324 Goal=   None    Shift=    0.000
 RMSDP=1.97D-04 MaxDP=2.65D-02 DE=-2.96D-06 OVMax= 9.24D-02

 Cycle  44  Pass 1  IDiag  1:
 RMSU=  1.57D-04    CP:  1.00D+00 -3.00D+00  3.00D+00
 E= -4654.94140825513     Delta-E=       -0.000571377615 Rises=F Damp=F
 DIIS: error= 9.56D-05 at cycle  44 NSaved=   3.
 NSaved= 3 IEnMin= 3 EnMin= -4654.94140825513     IErMin= 3 ErrMin= 9.56D-05
 ErrMax= 9.56D-05  0.00D+00 EMaxC= 1.00D-01 BMatC= 2.18D-05 BMatP= 7.40D-04
 IDIUse=1 WtCom= 1.00D+00 WtEn= 0.00D+00
 Large coefficients: NSaved=  3 BigCof=   89.40 CofMax=   10.00 Det=-6.69D-10
 Inversion failed.  Reducing to  2 matrices.
 Coeff-Com: -0.105D+00 0.110D+01
 Coeff:     -0.105D+00 0.110D+01
 Gap=     0.306 Goal=   None    Shift=    0.000
 Gap=     0.320 Goal=   None    Shift=    0.000
 RMSDP=2.72D-05 MaxDP=3.25D-03 DE=-5.71D-04 OVMax= 1.26D-02

 Cycle  45  Pass 1  IDiag  1:
 RMSU=  7.29D-06    CP:  1.00D+00 -3.00D+00  3.00D+00  1.17D+00
 E= -4654.94146754329     Delta-E=       -0.000059288152 Rises=F Damp=F
 DIIS: error= 1.29D-04 at cycle  45 NSaved=   3.
 NSaved= 3 IEnMin= 3 EnMin= -4654.94146754329     IErMin= 2 ErrMin= 9.56D-05
 ErrMax= 1.29D-04  0.00D+00 EMaxC= 1.00D-01 BMatC= 3.28D-05 BMatP= 2.18D-05
 IDIUse=1 WtCom= 1.00D+00 WtEn= 0.00D+00
 Coeff-Com: -0.632D-01 0.692D+00 0.372D+00
 Coeff:     -0.632D-01 0.692D+00 0.372D+00
 Gap=     0.306 Goal=   None    Shift=    0.000
 Gap=     0.320 Goal=   None    Shift=    0.000
 RMSDP=3.85D-06 MaxDP=3.15D-04 DE=-5.93D-05 OVMax= 8.73D-04

 Cycle  46  Pass 1  IDiag  1:
 RMSU=  2.72D-06    CP:  1.00D+00 -3.00D+00  3.00D+00  1.18D+00  7.29D-01
 E= -4654.94147617872     Delta-E=       -0.000008635434 Rises=F Damp=F
 DIIS: error= 6.63D-05 at cycle  46 NSaved=   4.
 NSaved= 4 IEnMin= 4 EnMin= -4654.94147617872     IErMin= 4 ErrMin= 6.63D-05
 ErrMax= 6.63D-05  0.00D+00 EMaxC= 1.00D-01 BMatC= 6.40D-06 BMatP= 2.18D-05
 IDIUse=1 WtCom= 1.00D+00 WtEn= 0.00D+00
 Coeff-Com: -0.456D-01 0.409D+00 0.223D+00 0.414D+00
 Coeff:     -0.456D-01 0.409D+00 0.223D+00 0.414D+00
 Gap=     0.306 Goal=   None    Shift=    0.000
 Gap=     0.320 Goal=   None    Shift=    0.000
 RMSDP=4.48D-06 MaxDP=5.44D-04 DE=-8.64D-06 OVMax= 2.06D-03

 Cycle  47  Pass 1  IDiag  1:
 RMSU=  6.42D-07    CP:  1.00D+00 -3.00D+00  3.00D+00  1.21D+00  8.47D-01
                    CP:  1.26D+00
 E= -4654.94148650520     Delta-E=       -0.000010326481 Rises=F Damp=F
 DIIS: error= 6.55D-05 at cycle  47 NSaved=   5.
 NSaved= 5 IEnMin= 5 EnMin= -4654.94148650520     IErMin= 5 ErrMin= 6.55D-05
 ErrMax= 6.55D-05  0.00D+00 EMaxC= 1.00D-01 BMatC= 5.91D-06 BMatP= 6.40D-06
 IDIUse=1 WtCom= 1.00D+00 WtEn= 0.00D+00
 Coeff-Com: -0.477D-01 0.429D+00 0.236D+00 0.463D+00-0.802D-01
 Coeff:     -0.477D-01 0.429D+00 0.236D+00 0.463D+00-0.802D-01
 Gap=     0.306 Goal=   None    Shift=    0.000
 Gap=     0.320 Goal=   None    Shift=    0.000
 RMSDP=5.12D-07 MaxDP=6.35D-05 DE=-1.03D-05 OVMax= 2.34D-04

 Cycle  48  Pass 1  IDiag  1:
 RMSU=  4.42D-08    CP:  1.00D+00 -3.00D+00  3.00D+00  1.20D+00  8.33D-01
                    CP:  1.22D+00  9.36D-01
 E= -4654.94148532645     Delta-E=        0.000001178751 Rises=F Damp=F
 DIIS: error= 6.54D-05 at cycle  48 NSaved=   6.
 NSaved= 6 IEnMin= 5 EnMin= -4654.94148650520     IErMin= 6 ErrMin= 6.54D-05
 ErrMax= 6.54D-05  0.00D+00 EMaxC= 1.00D-01 BMatC= 5.91D-06 BMatP= 5.91D-06
 IDIUse=1 WtCom= 1.00D+00 WtEn= 0.00D+00
 Coeff-Com: -0.484D-01 0.463D+00 0.249D+00 0.254D+00 0.587D+01-0.578D+01
 Coeff:     -0.484D-01 0.463D+00 0.249D+00 0.254D+00 0.587D+01-0.578D+01
 Gap=     0.306 Goal=   None    Shift=    0.000
 Gap=     0.320 Goal=   None    Shift=    0.000
 RMSDP=2.84D-06 MaxDP=3.56D-04 DE= 1.18D-06 OVMax= 1.31D-03

 Cycle  49  Pass 1  IDiag  1:
 RMSU=  1.66D-07    CP:  1.00D+00 -3.00D+00  3.00D+00  1.22D+00  9.08D-01
                    CP:  1.43D+00  1.45D+00 -3.00D+00
 E= -4654.94149186982     Delta-E=       -0.000006543369 Rises=F Damp=F
 DIIS: error= 6.56D-05 at cycle  49 NSaved=   7.
 NSaved= 7 IEnMin= 7 EnMin= -4654.94149186982     IErMin= 6 ErrMin= 6.54D-05
 ErrMax= 6.56D-05  0.00D+00 EMaxC= 1.00D-01 BMatC= 5.93D-06 BMatP= 5.91D-06
 IDIUse=1 WtCom= 1.00D+00 WtEn= 0.00D+00
 Large coefficients: NSaved=  7 BigCof=   25.32 CofMax=   10.00 Det=-8.50D-11
 Inversion failed.  Reducing to  6 matrices.
 Coeff-Com: -0.137D-01-0.957D-02-0.512D-01-0.495D+00 0.241D+01-0.839D+00
 Coeff:     -0.137D-01-0.957D-02-0.512D-01-0.495D+00 0.241D+01-0.839D+00
 Gap=     0.305 Goal=   None    Shift=    0.000
 Gap=     0.320 Goal=   None    Shift=    0.000
 RMSDP=1.87D-06 MaxDP=2.09D-04 DE=-6.54D-06 OVMax= 7.46D-04

 Cycle  50  Pass 1  IDiag  1:
 RMSU=  3.54D-07    CP:  1.00D+00 -3.00D+00  3.00D+00  1.23D+00  9.69D-01
                    CP:  1.66D+00  1.64D+00 -3.00D+00 -1.43D+00
 E= -4654.94149585967     Delta-E=       -0.000003989853 Rises=F Damp=F
 DIIS: error= 6.56D-05 at cycle  50 NSaved=   7.
 NSaved= 7 IEnMin= 7 EnMin= -4654.94149585967     IErMin= 5 ErrMin= 6.54D-05
 ErrMax= 6.56D-05  0.00D+00 EMaxC= 1.00D-01 BMatC= 5.92D-06 BMatP= 5.91D-06
 IDIUse=1 WtCom= 1.00D+00 WtEn= 0.00D+00
 Coeff-Com: -0.997D-03 0.101D-01 0.277D+00-0.804D+01 0.879D+01-0.763D+00
 Coeff-Com:  0.726D+00
 Coeff:     -0.997D-03 0.101D-01 0.277D+00-0.804D+01 0.879D+01-0.763D+00
 Coeff:      0.726D+00
 Gap=     0.305 Goal=   None    Shift=    0.000
 Gap=     0.320 Goal=   None    Shift=    0.000
 RMSDP=2.18D-06 MaxDP=2.87D-04 DE=-3.99D-06 OVMax= 1.05D-03

 Cycle  51  Pass 1  IDiag  1:
 RMSU=  1.18D-07    CP:  1.00D+00 -3.00D+00  3.00D+00  1.22D+00  9.28D-01
                    CP:  1.57D+00  1.36D+00 -7.10D-01 -2.64D+00  1.61D+00
 E= -4654.94149091895     Delta-E=        0.000004940721 Rises=F Damp=F
 DIIS: error= 6.54D-05 at cycle  51 NSaved=   8.
 NSaved= 8 IEnMin= 7 EnMin= -4654.94149585967     IErMin= 8 ErrMin= 6.54D-05
 ErrMax= 6.54D-05  0.00D+00 EMaxC= 1.00D-01 BMatC= 5.90D-06 BMatP= 5.91D-06
 IDIUse=1 WtCom= 1.00D+00 WtEn= 0.00D+00
 Large coefficients: NSaved=  8 BigCof=   86.74 CofMax=   10.00 Det=-1.26D-11
 Inversion failed.  Reducing to  7 matrices.
 Large coefficients: NSaved=  7 BigCof=   86.18 CofMax=   10.00 Det=-1.27D-11
 Inversion failed.  Reducing to  6 matrices.
 Large coefficients: NSaved=  6 BigCof=   19.50 CofMax=   10.00 Det=-5.60D-11
 Inversion failed.  Reducing to  5 matrices.
 Coeff-Com: -0.192D+01 0.279D+01-0.479D+00-0.103D+01 0.164D+01
 Coeff:     -0.192D+01 0.279D+01-0.479D+00-0.103D+01 0.164D+01
 Gap=     0.305 Goal=   None    Shift=    0.000
 Gap=     0.320 Goal=   None    Shift=    0.000
 RMSDP=1.09D-06 MaxDP=1.30D-04 DE= 4.94D-06 OVMax= 4.25D-04

 Cycle  52  Pass 1  IDiag  1:
 RMSU=  1.14D-07    CP:  1.00D+00 -3.00D+00  3.00D+00  1.22D+00  9.74D-01
                    CP:  1.72D+00  1.59D+00 -3.00D+00 -3.00D+00  2.47D+00
                    CP:  1.43D+00
 E= -4654.94149318495     Delta-E=       -0.000002265997 Rises=F Damp=F
 DIIS: error= 6.56D-05 at cycle  52 NSaved=   6.
 NSaved= 6 IEnMin= 4 EnMin= -4654.94149585967     IErMin= 5 ErrMin= 6.54D-05
 ErrMax= 6.56D-05  0.00D+00 EMaxC= 1.00D-01 BMatC= 5.91D-06 BMatP= 5.90D-06
 IDIUse=1 WtCom= 1.00D+00 WtEn= 0.00D+00
 Large coefficients: NSaved=  6 BigCof=   59.80 CofMax=   10.00 Det=-1.35D-10
 Inversion failed.  Reducing to  5 matrices.
 Large coefficients: NSaved=  5 BigCof=   12.71 CofMax=   10.00 Det=-9.00D-10
 Inversion failed.  Reducing to  4 matrices.
[...]
 8440,-0.00020104,-0.00040457,0.00046009,0.00032648,0.00151756,0.000763
 76,0.00050189,0.00058599,-0.00020351,0.00011199,-0.00002865,0.00024986
 ,-0.00016783,-0.00025604,-0.00008675,0.00002265,-0.00012804,0.00005242
 ,-0.00001590,-0.00002688,-0.00050366,0.00023680,0.00024938,-0.00001291
 ,0.00003962,0.00000779,-0.00002126,0.00000003,0.00001158,-0.00046251,-
 0.00030439,0.00037703,0.00004567,-0.00000028,-0.00007867,0.00001802,-0
 .00011177,0.00000916,-0.00036788,0.00008887,-0.00021596,-0.00034798,0.
 00039829,-0.00007998,-0.00043847,-0.00103185,-0.00069808,0.00058618,-0
 .00118546,0.00041797,0.25116767,-0.00114006,-0.00439284,-0.00057280,0.
 01037277,0.00783454,-0.00072476,-0.00315964,0.00278332,0.00228242,-0.0
 1813232,-0.01022791,-0.01115720,0.00867183,0.00450446,-0.00270472,-0.0
 1542588,-0.03263758,-0.00773137,0.00009619,-0.00031396,-0.00001355,-0.
 00007177,0.00027415,-0.00010814,-0.00029121,0.00034024,-0.00009072,-0.
 00037033,0.00021073,-0.00006758,0.00075533,-0.00080922,0.00051632,0.00
 045055,-0.00034398,0.00004917,-0.00000382,-0.00000723,-0.00003068,-0.0
 0000484,0.00005445,0.00001359,0.00001756,0.00002204,0.00002743,-0.0000
 1394,0.00002646,0.00000980,-0.00003210,-0.00011336,-0.00002266,-0.0000
 1549,0.00000498,0.00002554,0.00002378,-0.00000578,-0.00000200,0.000045
 33,0.00010701,0.00004397,0.00002637,0.00002582,0.00005119,-0.00000382,
 0.00004313,-0.00003195,-0.00005845,0.00003347,0.00003474,0.00006996,-0
 .00001736,0.00000934,-0.00162080,-0.00109122,-0.00068007,-0.00084870,-
 0.00077206,0.00032101,0.01515334,0.02963067,-0.00104664,-0.00176811,-0
 .00126641,0.00475779,-0.00166074,0.00626028,-0.00183655,0.00111345,0.0
 0194032,-0.01211615,-0.01027340,0.00111445,0.00453492,0.00384454,-0.00
 378216,-0.14137488,-0.00522147,-0.13933434,0.00046565,-0.00015883,-0.0
 0009496,-0.00017416,0.00000363,0.00003694,-0.00070557,0.00024954,-0.00
 011681,-0.00062369,-0.00011553,0.00014162,0.00161564,0.00016024,0.0005
 1107,0.00056377,0.00006257,-0.00022347,0.00000631,0.00000743,-0.000028
 99,-0.00002969,-0.00000150,0.00006636,-0.00000669,0.00002042,0.0000277
 0,-0.00000309,-0.00001295,0.00001745,0.00013464,0.00000365,-0.00008848
 ,-0.00000379,0.00001927,0.00001749,-0.00001984,-0.00000871,-0.00000440
 ,-0.00005340,0.00011866,0.00014424,0.00003923,0.00003920,0.00004224,0.
 00002622,-0.00006878,-0.00001831,-0.00003993,0.00004366,0.00003132,0.0
 0003692,-0.00003318,0.00002962,-0.00091857,-0.00083226,-0.00010247,-0.
 00017810,-0.00091006,0.00088644,0.16360515,0.01050611,0.14918855,0.004
 72577,0.00293254,-0.00076953,-0.00809740,-0.00556858,0.01688693,0.0007
 4662,-0.00195878,-0.00071270,0.00522213,-0.00448282,0.00293998,-0.0006
 9265,0.00248020,0.00073750,-0.04700788,-0.03765721,0.05327505,0.000362
 49,-0.00000169,0.00029566,-0.00023540,-0.00010465,-0.00011042,-0.00042
 228,0.00007898,-0.00046799,-0.00050628,-0.00033756,-0.00020308,0.00110
 201,0.00101732,0.00171468,0.00062026,0.00043973,0.00027186,-0.00012665
 ,0.00007760,-0.00002148,0.00012278,-0.00014664,-0.00008489,-0.00006888
 ,0.00001671,-0.00007674,0.00004465,-0.00002837,-0.00000576,-0.00014238
 ,0.00022175,0.00013158,-0.00001282,0.00003429,-0.00000196,-0.00005133,
 0.00001172,-0.00000426,-0.00020648,0.00016006,0.00020632,0.00006850,0.
 00002317,-0.00004455,0.00011855,-0.00021761,-0.00002318,-0.00022795,0.
 00004931,-0.00011010,-0.00016504,0.00016145,-0.00001321,0.00025384,-0.
 00034128,-0.00028899,0.00026765,-0.00073795,0.00014689,0.00222071,0.00
 610730,-0.01531102,0.04381308,0.00077612,-0.00341119,-0.00090683,0.003
 01654,0.00603578,-0.00125272,-0.00377949,0.00240408,0.00212991,-0.0126
 5491,-0.02235761,0.01173778,0.01097061,0.00557205,-0.00078605,-0.03399
 155,-0.11760869,0.13537821,0.00005381,-0.00048693,0.00009717,-0.000112
 52,0.00041645,-0.00023233,-0.00037108,0.00056861,-0.00025666,-0.000556
 23,0.00023220,-0.00020623,0.00123686,-0.00105977,0.00113988,0.00070925
 ,-0.00040693,0.00028101,-0.00007752,0.00000902,-0.00005046,0.00011520,
 0.00008697,-0.00011740,0.00001292,0.00004346,-0.00000575,-0.00001863,0
 .00006050,-0.00000063,-0.00040372,-0.00021134,0.00011424,-0.00003357,0
 .00000776,0.00004268,0.00006569,-0.00001177,0.00000813,-0.00002863,0.0
 0005576,0.00011329,0.00005448,0.00004168,0.00003298,-0.00003273,0.0000
 9991,-0.00004764,-0.00016312,0.00006353,-0.00003423,-0.00003208,0.0001
 5287,-0.00008042,-0.00140359,-0.00077781,-0.00077832,-0.00115035,-0.00
 221169,0.00083736,-0.00040620,0.00407040,0.00519555,0.03956638,0.12781
 254,-0.00627507,-0.00325553,-0.00050173,0.01602868,0.00823170,-0.00957
 305,-0.00029364,0.00201335,0.00120002,0.00224549,0.00215603,0.00380359
 ,-0.00048587,-0.00203415,-0.00283816,0.04774467,0.13418528,-0.23339624
 ,0.00084642,-0.00017864,-0.00055687,-0.00010917,-0.00014277,0.00031938
 ,-0.00136907,0.00023709,0.00012891,-0.00081810,-0.00035158,0.00071363,
 0.00293822,0.00116216,-0.00039796,0.00026264,0.00001985,-0.00092968,0.
 00017303,-0.00006408,-0.00003177,-0.00023536,0.00009379,0.00032651,0.0
 0003596,0.00001662,0.00014902,-0.00003967,-0.00003781,0.00004569,0.000
 63405,-0.00013313,-0.00037303,0.00000271,0.00001409,0.00002571,-0.0000
 3342,-0.00001146,-0.00001491,0.00012155,-0.00017165,-0.00014023,0.0000
 5491,0.00010111,0.00011607,-0.00003693,-0.00009260,-0.00006270,0.00031
 162,-0.00003342,0.00023820,0.00020439,-0.00030918,0.00011134,0.0001943
 6,0.00025927,0.00111203,-0.00003528,0.00052686,0.00020654,-0.00295443,
 0.01044298,-0.01505093,-0.05639555,-0.15127427,0.25472897,-0.00439771,
 0.00062083,0.00179189,0.00315687,0.00000454,-0.00275624,0.00252574,-0.
 00089379,-0.00174151,-0.00119221,0.00188577,-0.00480649,-0.00379058,-0
 .00519712,0.00615934,0.00105270,0.00241360,0.00728720,0.00547577,-0.00
 371219,-0.00154136,-0.00188632,0.00070892,0.00018554,-0.01453625,0.003
 20617,-0.01189273,-0.01720925,-0.01010570,-0.00076686,-0.17636993,-0.0
 7936444,-0.11575413,0.00792251,-0.00033571,-0.00386935,0.00005999,-0.0
 0023293,-0.00050775,-0.00003876,0.00092826,0.00061644,0.00013749,0.000
 35594,0.00036585,-0.00020355,0.00030194,0.00027634,-0.00076595,-0.0015
 5755,-0.00080589,-0.00015089,0.00008151,0.00023831,0.00011136,-0.00015
 304,-0.00005607,0.00037848,0.00024862,-0.00016945,-0.00199421,0.001898
 60,0.00175477,-0.00013945,0.00034854,0.00003770,0.00025794,-0.00005483
 ,0.00043141,0.00018024,-0.00029723,0.00001459,0.00164683,0.00272446,-0
 .00130267,0.00035938,0.00068153,-0.00059178,-0.00031351,-0.00030147,-0
 .00088737,-0.00148801,-0.00088948,-0.00221991,0.19927610,-0.00022775,-
 0.00332917,0.00062652,-0.00001453,0.00100360,-0.00120007,-0.00070233,0
 .00327870,0.00220136,0.00131608,0.00281126,0.00119689,-0.00244823,-0.0
 0338619,-0.00734656,0.00164620,-0.00368480,0.00225454,-0.00319891,-0.0
 0184272,0.00117179,-0.00092362,0.00379823,-0.00161762,0.01053402,0.003
 77625,0.00702397,-0.01815365,-0.00169917,0.00066495,-0.07455658,-0.069
 60630,-0.06340350,0.00742087,-0.00371806,-0.00137328,-0.00005281,-0.00
 002649,-0.00010367,-0.00001647,0.00002476,-0.00061406,0.00015491,0.000
 02618,0.00004065,-0.00007558,0.00023800,0.00002269,0.00047765,0.000038
 06,0.00031927,0.00018076,-0.00011666,0.00003574,0.00025535,-0.00005737
 ,-0.00000900,0.00027060,-0.00011373,0.00000625,-0.00026893,-0.00127671
 ,-0.00069583,0.00022629,0.00084387,0.00029223,-0.00011353,0.00004879,-
 0.00020274,0.00005721,0.00011250,-0.00022788,0.00241271,-0.00420308,0.
 00525222,0.00034971,0.00030792,0.00094037,-0.00013947,0.00046618,-0.00
 019266,-0.00116520,0.00052593,-0.00120016,0.08650838,0.07985650,-0.001
 85549,0.00164523,0.00327563,-0.00060815,-0.00056646,-0.00185613,0.0004
 3300,0.00067897,-0.00257621,-0.00292900,0.00162665,-0.00226353,0.00210
 676,-0.00678410,0.00286219,0.00436777,0.00197124,0.00212989,0.00676156
 ,-0.00230098,-0.00411820,-0.00053319,-0.00194672,0.00184304,-0.0224659
 4,0.00496025,-0.00304841,0.00451374,0.00294559,0.00547427,-0.10595480,
 -0.06228680,-0.11439702,-0.00145894,0.00143866,-0.00269302,0.00023872,
 -0.00025030,-0.00051390,-0.00039426,0.00033961,-0.00057237,0.00021731,
 0.00029834,0.00048871,-0.00029755,0.00027017,0.00031891,0.00132977,0.0
 0026026,0.00066007,0.00036118,-0.00023193,0.00040089,0.00018873,-0.000
 12743,0.00005373,0.00040503,-0.00033963,0.00000935,-0.00020354,-0.0009
 8888,-0.00130001,-0.00002572,0.00049395,0.00004753,0.00022676,-0.00009
 213,0.00001215,0.00012852,-0.00018309,-0.00002561,-0.00050562,0.003240
 18,0.00056428,-0.00027906,0.00092013,-0.00021716,-0.00078202,-0.000272
 47,-0.00034323,-0.00135624,-0.00070402,0.00005027,0.12759338,0.0692564
 8,0.12505455,-0.00163253,0.00051283,0.00033536,0.00127790,-0.00003021,
 -0.00071087,0.00121945,-0.00098934,-0.00090308,0.00019967,-0.00049099,
 -0.00118977,-0.00145584,0.00056440,0.00352153,-0.00064850,0.00108795,0
 .00184893,0.00436276,-0.00225112,-0.00065210,-0.00142895,0.00064631,-0
 .00010031,-0.00604326,0.01400243,0.00490983,-0.00935399,0.00319889,0.0
 1412771,-0.09547619,0.08751212,0.09637955,0.00721946,0.00101380,-0.001
 50190,-0.00031862,-0.00009719,-0.00052120,-0.00007213,0.00032237,0.000
 08957,0.00012014,0.00032996,0.00034742,-0.00015043,0.00017929,0.000202
 42,0.00021215,-0.00043923,-0.00012840,0.00004932,-0.00000974,0.0002075
 9,0.00008682,-0.00009905,-0.00002635,0.00019110,0.00001292,0.00004218,
 -0.00029528,0.00009578,-0.00013379,0.00000459,0.00016116,0.00007223,0.
 00011309,0.00000767,0.00013669,0.00008092,-0.00015074,-0.00004686,0.00
 043957,0.00024019,-0.00263601,0.00011020,0.00001739,-0.00052046,0.0000
 6030,-0.00014521,-0.00025123,0.00006208,-0.00020819,-0.00049313,0.0044
 1954,-0.00740062,-0.00977580,0.09864009,0.00048774,-0.00112111,0.00035
 552,-0.00043012,0.00021248,-0.00022935,-0.00052275,0.00165124,0.000665
 32,-0.00003672,0.00134977,0.00015143,-0.00001935,-0.00323171,-0.002421
 70,0.00099201,-0.00104729,0.00051999,-0.00726034,-0.00046200,0.0023554
 8,0.00030937,0.00353588,-0.00189048,0.02003378,-0.01254562,-0.00670153
 ,-0.00507920,0.00531181,0.00489765,0.08462238,-0.14282951,-0.12746935,
 0.00279708,-0.00383044,0.00049989,0.00029989,0.00019067,0.00038909,0.0
 0002354,-0.00037031,-0.00012364,-0.00006012,-0.00032551,-0.00031127,0.
 00012520,-0.00005678,-0.00017517,-0.00005507,0.00035692,0.00010076,-0.
 00001705,0.00002116,-0.00021727,0.00003417,0.00006776,-0.00003310,-0.0
 0009723,-0.00002889,-0.00004328,-0.00001403,-0.00023535,0.00023132,-0.
 00000760,0.00017063,0.00006015,-0.00006796,0.00001236,-0.00011927,0.00
 001171,0.00006699,-0.00006707,0.00069760,0.00113872,0.00278555,0.00005
 832,0.00037427,0.00047324,-0.00016421,0.00015387,-0.00006131,-0.000295
 36,0.00016598,-0.00022885,0.00128912,-0.00455234,-0.01318258,-0.096868
 97,0.15446183,0.00002034,0.00077128,0.00104200,-0.00043890,-0.00028287
 ,-0.00031220,-0.00007534,-0.00040244,-0.00113010,-0.00095510,-0.000342
 73,-0.00049216,0.00186303,-0.00046099,0.00283879,0.00154232,0.00075264
 ,0.00057658,0.00144837,0.00092218,-0.00197890,0.00158829,-0.00225548,0
 .00195189,-0.00280231,0.00371493,0.00515405,0.01848308,-0.00285243,-0.
 00871560,0.09155476,-0.12680523,-0.16241187,-0.00912264,-0.00022026,-0
 .00154321,-0.00005239,-0.00018893,0.00004459,-0.00009287,0.00007892,-0
 .00019363,0.00006623,0.00003765,0.00008948,-0.00004882,-0.00000780,0.0
 0000755,-0.00009689,0.00039365,0.00029564,0.00009370,-0.00009615,0.000
 05630,0.00000842,0.00000993,0.00004076,0.00014056,-0.00013622,-0.00008
 566,-0.00005524,-0.00010242,0.00000950,-0.00004966,0.00006862,-0.00002
 405,0.00003162,-0.00006708,-0.00004904,-0.00001336,0.00002940,0.000054
 13,-0.00167010,0.00123296,-0.00312183,-0.00035587,0.00034825,-0.000443
 29,-0.00037054,-0.00011800,-0.00013907,-0.00043052,-0.00023850,0.00004
 846,0.00119036,-0.01396686,-0.01067619,-0.10414327,0.13951625,0.179496
 08,-0.00010852,0.00070361,0.00067197,-0.00012926,-0.00018241,-0.000153
 35,-0.00010672,-0.00054115,-0.00082938,-0.00039901,-0.00030646,-0.0002
 9099,0.00108581,0.00008014,0.00150725,0.00053154,0.00045565,0.00041157
 ,-0.00390656,-0.00013059,0.00086354,0.00687211,0.00767345,-0.00303341,
 0.00277676,-0.00345679,0.00188118,-0.01907051,-0.01997123,0.00242710,0
 .00493686,0.00678226,-0.00829834,-0.07366786,-0.10570289,-0.03260324,0
 .00021957,-0.00003758,-0.00005394,-0.00016637,-0.00005757,-0.00004528,
 0.00005504,-0.00006817,0.00003785,-0.00000498,0.00009534,0.00004773,-0
 .00010627,0.00037802,0.00027366,0.00007906,-0.00005635,0.00002626,0.00
 004272,-0.00002121,-0.00003693,0.00011943,-0.00013306,-0.00011958,0.00
 003500,-0.00000978,-0.00009966,0.00002061,-0.00004644,-0.00003667,0.00
 004634,-0.00004658,-0.00004380,-0.00001210,0.00000339,0.00003976,-0.00
 065680,0.00009947,-0.00060016,-0.00017292,0.00012670,-0.00026408,-0.00
 016645,-0.00007174,-0.00011157,-0.00014046,-0.00011597,-0.00005192,-0.
 00179522,-0.00148283,0.00031416,-0.00079415,-0.00033589,0.00118332,0.0
 7861948,0.00087567,-0.00075866,0.00033731,-0.00071245,-0.00003078,0.00
 009839,-0.00047628,0.00116413,0.00017790,-0.00021493,0.00043091,-0.000
 00074,0.00059346,-0.00165536,-0.00003887,0.00088672,-0.00040384,0.0000
 3604,0.00485996,0.00532582,-0.00455467,-0.00554343,-0.02593484,0.00491
 190,-0.00258081,0.00089264,0.00083252,-0.00764746,-0.00183140,0.000358
 55,0.00433477,-0.00124593,-0.00278494,-0.10591770,-0.27034879,-0.07832
 398,-0.00020042,-0.00005166,0.00086502,0.00015422,-0.00034474,-0.00024
 465,-0.00016993,-0.00032562,-0.00034789,0.00015881,-0.00042446,-0.0003
 2287,-0.00011217,0.00038395,0.00020052,-0.00014193,-0.00006710,-0.0002
 4051,-0.00016959,0.00009738,0.00013732,-0.00010502,-0.00001418,-0.0003
 3607,0.00035968,-0.00000564,-0.00000276,-0.00002051,-0.00006906,-0.000
 04640,-0.00006561,-0.00006075,-0.00010221,-0.00001823,0.00013457,0.000
 15152,-0.00013471,0.00062232,-0.00000145,-0.00009315,0.00044356,-0.000
 05321,-0.00022397,0.00005595,-0.00006825,-0.00019459,0.00004374,-0.000
 01703,-0.00114995,-0.00013415,-0.00009781,-0.00068045,0.00090336,0.000
 71633,0.11810968,0.29676690,0.00081150,0.00045520,0.00005508,-0.000516
 57,-0.00014818,0.00022045,-0.00060277,-0.00006127,0.00020603,-0.000250
 24,-0.00006376,0.00019797,0.00078021,-0.00012806,-0.00070201,0.0004579
 1,0.00005658,-0.00037419,-0.00122390,-0.00223864,0.00050736,-0.0005696
 8,0.00902392,0.00530019,0.00054467,-0.00008508,0.00059900,0.00045000,0
 .00008227,0.00757267,-0.00093925,-0.00051028,-0.00175239,-0.02977434,-
 0.07282988,-0.05567759,0.00009337,-0.00005220,-0.00034269,0.00011141,0
 .00030641,-0.00003186,0.00010109,0.00011054,0.00015439,-0.00009616,0.0
 0014994,0.00018183,-0.00011335,0.00006171,-0.00003869,0.00003146,-0.00
 005616,0.00012886,-0.00010635,0.00008299,-0.00000960,0.00017317,0.0000
 5312,-0.00005312,0.00014158,0.00009763,-0.00008726,-0.00002183,-0.0000
 8488,0.00001949,-0.00009359,-0.00009691,0.00002493,-0.00010608,0.00022
 495,0.00031792,-0.00007106,0.00001607,0.00031344,-0.00013907,0.0000496
 0,0.00007951,-0.00011479,-0.00001360,0.00001951,-0.00007047,-0.0000505
 9,0.00013223,0.00020662,0.00006435,0.00034665,0.00011059,0.00020744,0.
 00048208,0.03711496,0.08528191,0.05422671,0.00054362,0.00152218,0.0009
 4094,-0.00049531,-0.00031269,-0.00002939,-0.00130771,-0.00055696,-0.00
 081210,-0.00060876,-0.00033532,-0.00005545,0.00183240,-0.00042281,0.00
 048326,0.00079509,0.00051705,0.00010329,-0.00437775,-0.00113399,0.0010
 4366,0.00703141,0.00692955,-0.00938481,0.00291464,-0.00337255,0.001289
 24,-0.01258434,-0.00348053,0.02093090,0.00373058,0.00741458,-0.0052212
 3,-0.03568426,0.00064986,0.04340416,0.00023806,-0.00003227,0.00000651,
 -0.00068644,-0.00011408,0.00005164,0.00009956,-0.00006339,0.00013106,0
 .00000841,0.00011583,-0.00002576,-0.00029728,0.00066627,0.00032169,0.0
 0019561,-0.00001869,0.00003585,0.00014074,-0.00008276,-0.00011896,0.00
 024622,-0.00063449,-0.00036145,-0.00037084,-0.00065977,-0.00052185,0.0
 0009323,-0.00022802,-0.00008148,-0.00006804,-0.00030528,0.00000996,-0.
 00079507,-0.00010792,0.00020963,-0.00055940,0.00016174,-0.00024770,-0.
 00027120,0.00024569,-0.00017245,-0.00023168,-0.00007871,-0.00009437,-0
 .00015929,-0.00014842,0.00004797,-0.00068870,-0.00086953,0.00023926,-0
 .00119932,-0.00045000,0.00155937,0.00596385,-0.00375968,-0.00631906,0.
 03655186,0.00171252,-0.00200635,-0.00013424,-0.00100137,0.00004004,0.0
 0021765,-0.00019763,0.00209644,0.00075488,-0.00002326,0.00056363,0.000
 17424,-0.00010900,-0.00151347,-0.00073624,0.00081571,-0.00064339,-0.00
 040285,0.00273929,0.00206107,-0.00247308,0.00155317,-0.00065741,0.0158
 3782,-0.00201466,0.00181432,-0.00009318,0.00249926,0.00765340,-0.00155
 682,0.00030536,-0.00303766,0.00083933,-0.00126364,-0.03499963,-0.01265
 600,-0.00016820,-0.00011472,-0.00000383,0.00056455,0.00054203,-0.00036
 118,0.00001814,-0.00005536,-0.00003576,-0.00004789,-0.00009904,0.00009
 592,-0.00018149,0.00045938,0.00034948,-0.00012872,-0.00023333,0.000038
 63,-0.00059399,-0.00017919,0.00020812,-0.00026858,-0.00013862,-0.00042
 739,-0.00018426,-0.00124742,-0.00056630,-0.00009678,-0.00028002,-0.000
 13135,-0.00044745,-0.00024844,-0.00014928,-0.00056721,-0.00017857,0.00
 067797,0.00022314,0.00038312,0.00022612,-0.00000930,0.00035170,0.00003
 945,-0.00019385,0.00009064,-0.00000019,-0.00014028,0.00007445,0.000076
 17,0.00003868,0.00059024,0.00000963,-0.00004443,0.00049113,-0.00004860
 ,-0.00173299,-0.00355821,-0.01990514,-0.00105492,0.03197924,0.00306302
 ,0.00075225,-0.00033916,-0.00149853,-0.00032909,0.00073654,-0.00196452
 ,0.00071470,0.00133683,-0.00046149,0.00006365,0.00074764,0.00122813,-0
 .00084125,-0.00305069,0.00100745,-0.00013172,-0.00135964,-0.00340776,-
 0.00772673,0.00203035,0.00145209,0.01324772,-0.01833331,0.00134940,0.0
 0125035,-0.00066517,0.01198328,0.00325016,-0.00908158,-0.00655642,-0.0
 0436459,0.00119462,0.03934355,-0.02208739,-0.31493738,-0.00008542,-0.0
 0034235,-0.00071767,0.00034791,0.00096371,-0.00000308,0.00029902,0.000
 40793,0.00055100,-0.00024246,0.00038675,0.00051338,0.00001927,-0.00019
 471,-0.00081706,0.00002394,-0.00013486,0.00044512,-0.00042219,0.000124
 52,-0.00023627,0.00064143,0.00011082,-0.00046704,-0.00006785,0.0002363
 4,-0.00031619,-0.00002509,-0.00019259,0.00024739,-0.00053268,-0.000410
 80,0.00015147,-0.00072493,0.00068097,0.00126402,0.00037661,0.00001652,
 0.00116763,-0.00024442,0.00016122,0.00035973,-0.00023022,0.00000868,0.
 00011837,-0.00010381,-0.00008517,0.00041069,0.00152029,0.00078382,0.00
 100923,0.00140294,0.00006608,-0.00087115,-0.00012796,-0.00652094,-0.01
 201690,-0.04736235,0.02013602,0.35092825\\-0.00064842,0.00134539,-0.00
 183753,-0.00030733,0.00000534,0.00036820,0.00022170,-0.00071721,0.0002
 4405,0.00007179,-0.00001420,-0.00015079,-0.00007632,0.00016107,0.00043
 574,0.00004320,-0.00024330,0.00032935,0.00384673,-0.00308475,0.0079107
 7,0.00064247,0.00510044,-0.00352785,-0.00465212,0.00222150,-0.00104028
 ,-0.00035125,0.00019144,-0.00023517,0.00091983,-0.00081512,0.00076733,
 0.00104535,-0.00129792,0.00075010,-0.00098314,-0.00375231,-0.00466384,
 0.00010355,-0.00028471,0.00040653,0.00014543,0.00058251,0.00025124,-0.
 00009078,0.00023060,0.00004125,0.00039109,-0.00031264,0.00037026,-0.00
 001274,-0.00003710,-0.00010539,0.00000169,0.00002673,0.00000424,0.0003
 4618,-0.00002874,0.00031365,-0.00000753,0.00002916,-0.00001789,0.00000
 070,0.00002072,0.00000684,0.00010196,-0.00011118,0.00024113,0.00000822
 ,-0.00010121,0.00008401,0.00016065,0.00129639,0.00029146,0.00124071,0.
 00212944,-0.00072135,-0.00133292,-0.00063400,-0.00067335,-0.00023680,-
 0.00276369,0.00092981,-0.00139977,-0.00224735,-0.00420684,-0.00101472,
 0.00186945,0.00491075,0.00199109,0.00302766,0.00060406,-0.00016849,-0.
 00179241,-0.00208048\\\@


 BETTER TO HUNT IN FIELDS, FOR HEALTH UNBOUGHT
 THAN FEE THE DOCTOR FOR A NAUSEOUS DRAUGHT.
 THE WISE, FOR CURE, ON EXERCISE DEPEND;
 GOD NEVER MADE HIS WORK FOR MAN TO MEND.
     -- JOHN DRYDEN (1631-1700)
 Job cpu time:       3 days  2 hours 45 minutes 10.2 seconds.
 File lengths (MBytes):  RWF=   1860 Int=      0 D2E=      0 Chk=     20 Scr=      1
 Normal termination of Gaussian 09 at Tue Jun 20 23:12:51 2017.
268819.545u 290.827s 12:12:17.55 612.4%	0+0k 0+10103296io 0pf+0w
