 Entering Gaussian System, Link 0=g09
 Input=C2H4opt.gjf
 Output=C2H4opt.log
 Initial command:
 /share/apps/gaussian09/g09/l1.exe /state/partition1/96373.karakoram.cnsi.ucsb.edu/Gau-16470.inp -scrdir=/state/partition1/96373.karakoram.cnsi.ucsb.edu/
 Entering Link 1 = /share/apps/gaussian09/g09/l1.exe PID=     16471.
  
 Copyright (c) 1988,1990,1992,1993,1995,1998,2003,2009,2011,
            Gaussian, Inc.  All Rights Reserved.
  
 This is part of the Gaussian(R) 09 program.  It is based on
 the Gaussian(R) 03 system (copyright 2003, Gaussian, Inc.),
 the Gaussian(R) 98 system (copyright 1998, Gaussian, Inc.),
 the Gaussian(R) 94 system (copyright 1995, Gaussian, Inc.),
 the Gaussian 92(TM) system (copyright 1992, Gaussian, Inc.),
 the Gaussian 90(TM) system (copyright 1990, Gaussian, Inc.),
 the Gaussian 88(TM) system (copyright 1988, Gaussian, Inc.),
 the Gaussian 86(TM) system (copyright 1986, Carnegie Mellon
 University), and the Gaussian 82(TM) system (copyright 1983,
 Carnegie Mellon University). Gaussian is a federally registered
 trademark of Gaussian, Inc.
  
 This software contains proprietary and confidential information,
 including trade secrets, belonging to Gaussian, Inc.
  
 This software is provided under written license and may be
 used, copied, transmitted, or stored only in accord with that
 written license.
  
 The following legend is applicable only to US Government
 contracts under FAR:
  
                    RESTRICTED RIGHTS LEGEND
  
 Use, reproduction and disclosure by the US Government is
 subject to restrictions as set forth in subparagraphs (a)
 and (c) of the Commercial Computer Software - Restricted
 Rights clause in FAR 52.227-19.
  
 Gaussian, Inc.
 340 Quinnipiac St., Bldg. 40, Wallingford CT 06492
  
  
 ---------------------------------------------------------------
 Warning -- This program may not be used in any manner that
 competes with the business of Gaussian, Inc. or will provide
 assistance to any competitor of Gaussian, Inc.  The licensee
 of this program is prohibited from giving any competitor of
 Gaussian, Inc. access to this program.  By using this program,
 the user acknowledges that Gaussian, Inc. is engaged in the
 business of creating and licensing software in the field of
 computational chemistry and represents and warrants to the
 licensee that it is not a competitor of Gaussian, Inc. and that
 it will not use this program in any manner prohibited above.
 ---------------------------------------------------------------
  

 Cite this work as:
 Gaussian 09, Revision C.01,
 M. J. Frisch, G. W. Trucks, H. B. Schlegel, G. E. Scuseria, 
 M. A. Robb, J. R. Cheeseman, G. Scalmani, V. Barone, B. Mennucci, 
 G. A. Petersson, H. Nakatsuji, M. Caricato, X. Li, H. P. Hratchian, 
 A. F. Izmaylov, J. Bloino, G. Zheng, J. L. Sonnenberg, M. Hada, 
 M. Ehara, K. Toyota, R. Fukuda, J. Hasegawa, M. Ishida, T. Nakajima, 
 Y. Honda, O. Kitao, H. Nakai, T. Vreven, J. A. Montgomery, Jr., 
 J. E. Peralta, F. Ogliaro, M. Bearpark, J. J. Heyd, E. Brothers, 
 K. N. Kudin, V. N. Staroverov, T. Keith, R. Kobayashi, J. Normand, 
 K. Raghavachari, A. Rendell, J. C. Burant, S. S. Iyengar, J. Tomasi, 
 M. Cossi, N. Rega, J. M. Millam, M. Klene, J. E. Knox, J. B. Cross, 
 V. Bakken, C. Adamo, J. Jaramillo, R. Gomperts, R. E. Stratmann, 
 O. Yazyev, A. J. Austin, R. Cammi, C. Pomelli, J. W. Ochterski, 
 R. L. Martin, K. Morokuma, V. G. Zakrzewski, G. A. Voth, 
 P. Salvador, J. J. Dannenberg, S. Dapprich, A. D. Daniels, 
 O. Farkas, J. B. Foresman, J. V. Ortiz, J. Cioslowski, 
 and D. J. Fox, Gaussian, Inc., Wallingford CT, 2010.
 
 ******************************************
 Gaussian 09:  EM64L-G09RevC.01 23-Sep-2011
                 3-May-2017 
 ******************************************
 %nprocshared=8
 Will use up to    8 processors via shared memory.
 ------------------------------------------------------------
 #p wb97xd/TZVP nosymm geom=connectivity opt freq temp=373.15
 ------------------------------------------------------------
 1/14=-1,18=20,19=15,26=3,38=1,57=2,112=373150/1,3;
 2/9=110,12=2,15=1,17=6,18=5,40=1/2;
 3/5=19,7=101,11=2,16=1,25=1,30=1,71=1,74=-58/1,2,3;
 4//1;
 5/5=2,38=5/2;
 6/7=2,8=2,9=2,10=2,28=1/1;
 7/30=1/1,2,3,16;
 1/14=-1,18=20,19=15/3(2);
 2/9=110,15=1/2;
 99//99;
 2/9=110,15=1/2;
 3/5=19,7=101,11=2,16=1,25=1,30=1,71=1,74=-58/1,2,3;
 4/5=5,16=3/1;
 5/5=2,38=5/2;
 7/30=1/1,2,3,16;
 1/14=-1,18=20,19=15/3(-5);
 2/9=110,15=1/2;
 6/7=2,8=2,9=2,10=2,19=2,28=1/1;
 99/9=1/99;
 Leave Link    1 at Wed May  3 10:14:39 2017, MaxMem=          0 cpu:       0.3
 (Enter /share/apps/gaussian09/g09/l101.exe)
 -------------------
 Title Card Required
 -------------------
 Charge =  0 Multiplicity = 1
 Symbolic Z-Matrix:
 C                     0.23869   0.43342   0. 
 C                     1.56461   0.43342   0. 
 H                    -0.35489   1.35746   0. 
 H                    -0.35492  -0.4906   -0.00002 
 H                     2.15819  -0.49062  -0.00002 
 H                     2.15823   1.35743   0.00003 
 
 NAtoms=      6 NQM=        0 NQMF=       0 NMMI=      6 NMMIF=      0
                NMic=       0 NMicF=      0.
                    Isotopes and Nuclear Properties:
 (Nuclear quadrupole moments (NQMom) in fm**2, nuclear magnetic moments (NMagM)
  in nuclear magnetons)

  Atom         1           2           3           4           5           6
 IAtWgt=          12          12           1           1           1           1
 AtmWgt=  12.0000000  12.0000000   1.0078250   1.0078250   1.0078250   1.0078250
 NucSpn=           0           0           1           1           1           1
 AtZEff=   0.0000000   0.0000000   0.0000000   0.0000000   0.0000000   0.0000000
 NQMom=    0.0000000   0.0000000   0.0000000   0.0000000   0.0000000   0.0000000
 NMagM=    0.0000000   0.0000000   2.7928460   2.7928460   2.7928460   2.7928460
 Leave Link  101 at Wed May  3 10:14:39 2017, MaxMem=   33554432 cpu:       1.1
 (Enter /share/apps/gaussian09/g09/l103.exe)

 GradGradGradGradGradGradGradGradGradGradGradGradGradGradGradGradGradGrad
 Berny optimization.
 Initialization pass.
                           ----------------------------
                           !    Initial Parameters    !
                           ! (Angstroms and Degrees)  !
 --------------------------                            --------------------------
 ! Name  Definition              Value          Derivative Info.                !
 --------------------------------------------------------------------------------
 ! R1    R(1,2)                  1.3259         estimate D2E/DX2                !
 ! R2    R(1,3)                  1.0983         estimate D2E/DX2                !
 ! R3    R(1,4)                  1.0983         estimate D2E/DX2                !
 ! R4    R(2,5)                  1.0983         estimate D2E/DX2                !
 ! R5    R(2,6)                  1.0983         estimate D2E/DX2                !
 ! A1    A(2,1,3)              122.7159         estimate D2E/DX2                !
 ! A2    A(2,1,4)              122.718          estimate D2E/DX2                !
 ! A3    A(3,1,4)              114.5661         estimate D2E/DX2                !
 ! A4    A(1,2,5)              122.7159         estimate D2E/DX2                !
 ! A5    A(1,2,6)              122.718          estimate D2E/DX2                !
 ! A6    A(5,2,6)              114.5661         estimate D2E/DX2                !
 ! D1    D(3,1,2,5)           -179.9988         estimate D2E/DX2                !
 ! D2    D(3,1,2,6)              0.0016         estimate D2E/DX2                !
 ! D3    D(4,1,2,5)             -0.0002         estimate D2E/DX2                !
 ! D4    D(4,1,2,6)           -179.9998         estimate D2E/DX2                !
 --------------------------------------------------------------------------------
 Trust Radius=3.00D-01 FncErr=1.00D-07 GrdErr=1.00D-06
 Number of steps in this run=     25 maximum allowed number of steps=    100.
 GradGradGradGradGradGradGradGradGradGradGradGradGradGradGradGradGradGrad

 Leave Link  103 at Wed May  3 10:14:39 2017, MaxMem=   33554432 cpu:       0.1
 (Enter /share/apps/gaussian09/g09/l202.exe)
                          Input orientation:                          
 ---------------------------------------------------------------------
 Center     Atomic      Atomic             Coordinates (Angstroms)
 Number     Number       Type             X           Y           Z
 ---------------------------------------------------------------------
      1          6           0        0.238693    0.433417    0.000000
      2          6           0        1.564609    0.433417    0.000000
      3          1           0       -0.354892    1.357455    0.000000
      4          1           0       -0.354923   -0.490597   -0.000022
      5          1           0        2.158194   -0.490621   -0.000019
      6          1           0        2.158225    1.357431    0.000026
 ---------------------------------------------------------------------
                    Distance matrix (angstroms):
                    1          2          3          4          5
     1  C    0.000000
     2  C    1.325916   0.000000
     3  H    1.098267   2.130336   0.000000
     4  H    1.098263   2.130353   1.848052   0.000000
     5  H    2.130336   1.098267   3.119453   2.513117   0.000000
     6  H    2.130353   1.098263   2.513117   3.119474   1.848052
                    6
     6  H    0.000000
 Symmetry turned off by external request.
 Stoichiometry    C2H4
 Framework group  C1[X(C2H4)]
 Deg. of freedom    12
 Full point group                 C1      NOp   1
 Rotational constants (GHZ):    146.8262404     29.8802187     24.8276164
 Leave Link  202 at Wed May  3 10:14:39 2017, MaxMem=   33554432 cpu:       0.0
 (Enter /share/apps/gaussian09/g09/l301.exe)
 Standard basis: TZVP (5D, 7F)
 Ernie: Thresh=  0.10000D-02 Tol=  0.10000D-05 Strict=F.
 Integral buffers will be    131072 words long.
 Raffenetti 2 integral format.
 Two-electron integral symmetry is turned off.
    62 basis functions,   102 primitive gaussians,    64 cartesian basis functions
     8 alpha electrons        8 beta electrons
       nuclear repulsion energy        33.2263272448 Hartrees.
 IExCor= 4639 DFT=T Ex+Corr=wB97XD ExCW=0 ScaHFX=  1.000000
 ScaDFX=  1.000000  1.000000  1.000000  1.000000 ScalE2=  1.000000  1.000000
 IRadAn=      0 IRanWt=     -1 IRanGd=            0 ICorTp=0
  HFx wShort=  0.000000 wLong=  0.200000 cFull=  0.222036 cShort=  0.000000 cLong=  0.777964
  DFx wShort=  0.000000 wLong=  0.200000 cFull=  0.000000 cShort=  0.000000 cLong=  1.000000
 NAtoms=    6 NActive=    6 NUniq=    6 SFac= 1.00D+00 NAtFMM=   60 NAOKFM=F Big=F
 R6Disp: Dispersion energy =        -0.0008236149 Hartrees.
 Nuclear repulsion after empirical dispersion term =       33.2255036299 Hartrees.
 Leave Link  301 at Wed May  3 10:14:39 2017, MaxMem=   33554432 cpu:       0.6
 (Enter /share/apps/gaussian09/g09/l302.exe)
 NPDir=0 NMtPBC=     1 NCelOv=     1 NCel=       1 NClECP=     1 NCelD=      1
         NCelK=      1 NCelE2=     1 NClLst=     1 CellRange=     0.0.
 One-electron integrals computed using PRISM.
 NBasis=    62 RedAO= T  NBF=    62
 NBsUse=    62 1.00D-06 NBFU=    62
 Precomputing XC quadrature grid using
 IXCGrd= 2 IRadAn=           0 IRanWt=          -1 IRanGd=           0 AccXCQ= 0.00D+00.
 NRdTot=     374 NPtTot=       47012 NUsed=       49721 NTot=       49753
 NSgBfM=    64    64    64    64    64 NAtAll=     6     6.
 Leave Link  302 at Wed May  3 10:14:39 2017, MaxMem=   33554432 cpu:       1.6
 (Enter /share/apps/gaussian09/g09/l303.exe)
 DipDrv:  MaxL=1.
 Leave Link  303 at Wed May  3 10:14:39 2017, MaxMem=   33554432 cpu:       0.4
 (Enter /share/apps/gaussian09/g09/l401.exe)
 Harris functional with IExCor= 4639 diagonalized for initial guess.
 ExpMin= 9.52D-02 ExpMax= 1.36D+04 ExpMxC= 4.63D+02 IAcc=2 IRadAn=         4 AccDes= 0.00D+00
 HarFok:  IExCor= 4639 AccDes= 0.00D+00 IRadAn=         4 IDoV= 1
 ScaDFX=  1.000000  1.000000  1.000000  1.000000
 FoFCou: FMM=F IPFlag=           0 FMFlag=      100000 FMFlg1=           0
         NFxFlg=           0 DoJE=T BraDBF=F KetDBF=T FulRan=T
         Omega=  0.000000  0.000000  1.000000  0.000000  0.000000 ICntrl=     500 IOpCl=  0
         NMat0=    1 NMatS0=    1 NMatT0=    0 NMatD0=    1 NMtDS0=    0 NMtDT0=    0
         I1Cent=           4 NGrid=           0.
 Symmetry not used in FoFCou.
 Harris En= -74.6946364758370    
 Leave Link  401 at Wed May  3 10:14:40 2017, MaxMem=   33554432 cpu:       2.3
 (Enter /share/apps/gaussian09/g09/l502.exe)
 Closed shell SCF:
 Requested convergence on RMS density matrix=1.00D-08 within 128 cycles.
 Requested convergence on MAX density matrix=1.00D-06.
 Requested convergence on             energy=1.00D-06.
 No special actions if energy rises.
 Using DIIS extrapolation, IDIIS=  1040.
 Two-electron integral symmetry not used.
        49654 words used for storage of precomputed grid.
 IEnd=       80996 IEndB=       80996 NGot=    33554432 MDV=    33494237
 LenX=    33494237 LenY=    33489700
 Fock matrices will be formed incrementally for  20 cycles.
 Integral accuracy reduced to 1.0D-05 until final iterations.

 Cycle   1  Pass 0  IDiag  1:
 FoFJK:  IHMeth= 1 ICntrl=     0 DoSepK=T KAlg= 1 I1Cent= 0 FoldK=F
 FoFCou: FMM=F IPFlag=           0 FMFlag=      100000 FMFlg1=           0
         NFxFlg=           0 DoJE=T BraDBF=F KetDBF=F FulRan=T
         Omega=  0.000000  0.000000  1.000000  0.000000  0.000000 ICntrl=     500 IOpCl=  0
         NMat0=    1 NMatS0=    1 NMatT0=    0 NMatD0=    1 NMtDS0=    0 NMtDT0=    0
         I1Cent=           0 NGrid=           0.
 Symmetry not used in FoFCou.
 E= -78.5634649205761    
 DIIS: error= 9.75D-02 at cycle   1 NSaved=   1.
 NSaved= 1 IEnMin= 1 EnMin= -78.5634649205761     IErMin= 1 ErrMin= 9.75D-02
 ErrMax= 9.75D-02 EMaxC= 1.00D-01 BMatC= 1.66D-01 BMatP= 1.66D-01
 IDIUse=3 WtCom= 2.52D-02 WtEn= 9.75D-01
 Coeff-Com:  0.100D+01
 Coeff-En:   0.100D+01
 Coeff:      0.100D+01
 Gap=     0.425 Goal=   None    Shift=    0.000
 GapD=    0.425 DampG=2.000 DampE=0.500 DampFc=1.0000 IDamp=-1.
 RMSDP=2.04D-03 MaxDP=2.51D-02              OVMax= 5.51D-02

 Cycle   2  Pass 0  IDiag  1:
 RMSU=  1.41D-03    CP:  9.79D-01
 FoFJK:  IHMeth= 1 ICntrl=     0 DoSepK=T KAlg= 1 I1Cent= 0 FoldK=F
 E= -78.5827697614528     Delta-E=       -0.019304840877 Rises=F Damp=F
 DIIS: error= 9.96D-03 at cycle   2 NSaved=   2.
 NSaved= 2 IEnMin= 2 EnMin= -78.5827697614528     IErMin= 2 ErrMin= 9.96D-03
 ErrMax= 9.96D-03 EMaxC= 1.00D-01 BMatC= 3.49D-03 BMatP= 1.66D-01
 IDIUse=3 WtCom= 9.00D-01 WtEn= 9.96D-02
 Coeff-Com:  0.680D-01 0.932D+00
 Coeff-En:   0.000D+00 0.100D+01
 Coeff:      0.612D-01 0.939D+00
 Gap=     0.438 Goal=   None    Shift=    0.000
 RMSDP=9.22D-04 MaxDP=1.23D-02 DE=-1.93D-02 OVMax= 2.50D-02

 Cycle   3  Pass 0  IDiag  1:
 RMSU=  6.16D-04    CP:  9.90D-01  8.93D-01
 FoFJK:  IHMeth= 1 ICntrl=     0 DoSepK=T KAlg= 1 I1Cent= 0 FoldK=F
 E= -78.5848896063635     Delta-E=       -0.002119844911 Rises=F Damp=F
 DIIS: error= 5.77D-03 at cycle   3 NSaved=   3.
 NSaved= 3 IEnMin= 3 EnMin= -78.5848896063635     IErMin= 3 ErrMin= 5.77D-03
 ErrMax= 5.77D-03 EMaxC= 1.00D-01 BMatC= 1.27D-03 BMatP= 3.49D-03
 IDIUse=3 WtCom= 9.42D-01 WtEn= 5.77D-02
 Coeff-Com:  0.226D-01 0.385D+00 0.592D+00
 Coeff-En:   0.000D+00 0.197D+00 0.803D+00
 Coeff:      0.213D-01 0.374D+00 0.604D+00
 Gap=     0.432 Goal=   None    Shift=    0.000
 RMSDP=3.21D-04 MaxDP=4.29D-03 DE=-2.12D-03 OVMax= 1.00D-02

 Cycle   4  Pass 0  IDiag  1:
 RMSU=  7.05D-05    CP:  9.86D-01  9.60D-01  6.98D-01
 FoFJK:  IHMeth= 1 ICntrl=     0 DoSepK=T KAlg= 1 I1Cent= 0 FoldK=F
 E= -78.5861071849640     Delta-E=       -0.001217578600 Rises=F Damp=F
 DIIS: error= 2.26D-04 at cycle   4 NSaved=   4.
 NSaved= 4 IEnMin= 4 EnMin= -78.5861071849640     IErMin= 4 ErrMin= 2.26D-04
 ErrMax= 2.26D-04 EMaxC= 1.00D-01 BMatC= 2.07D-06 BMatP= 1.27D-03
 IDIUse=3 WtCom= 9.98D-01 WtEn= 2.26D-03
 Coeff-Com: -0.304D-02-0.485D-01-0.373D-01 0.109D+01
 Coeff-En:   0.000D+00 0.000D+00 0.000D+00 0.100D+01
 Coeff:     -0.304D-02-0.484D-01-0.372D-01 0.109D+01
 Gap=     0.432 Goal=   None    Shift=    0.000
 RMSDP=4.70D-05 MaxDP=3.16D-04 DE=-1.22D-03 OVMax= 5.21D-04

 Cycle   5  Pass 0  IDiag  1:
 RMSU=  8.04D-06    CP:  9.86D-01  9.68D-01  7.37D-01  1.27D+00
 FoFJK:  IHMeth= 1 ICntrl=     0 DoSepK=T KAlg= 1 I1Cent= 0 FoldK=F
 E= -78.5861100927674     Delta-E=       -0.000002907803 Rises=F Damp=F
 DIIS: error= 2.92D-05 at cycle   5 NSaved=   5.
 NSaved= 5 IEnMin= 5 EnMin= -78.5861100927674     IErMin= 5 ErrMin= 2.92D-05
 ErrMax= 2.92D-05 EMaxC= 1.00D-01 BMatC= 2.17D-08 BMatP= 2.07D-06
 IDIUse=1 WtCom= 1.00D+00 WtEn= 0.00D+00
 Coeff-Com: -0.358D-03-0.690D-02-0.110D-01-0.192D-01 0.104D+01
 Coeff:     -0.358D-03-0.690D-02-0.110D-01-0.192D-01 0.104D+01
 Gap=     0.432 Goal=   None    Shift=    0.000
 RMSDP=8.20D-06 MaxDP=6.91D-05 DE=-2.91D-06 OVMax= 1.05D-04

 Initial convergence to 1.0D-05 achieved.  Increase integral accuracy.
 Cycle   6  Pass 1  IDiag  1:
 FoFJK:  IHMeth= 1 ICntrl=     0 DoSepK=T KAlg= 1 I1Cent= 0 FoldK=F
 E= -78.5861676242794     Delta-E=       -0.000057531512 Rises=F Damp=F
 DIIS: error= 1.21D-04 at cycle   1 NSaved=   1.
 NSaved= 1 IEnMin= 1 EnMin= -78.5861676242794     IErMin= 1 ErrMin= 1.21D-04
 ErrMax= 1.21D-04 EMaxC= 1.00D-01 BMatC= 5.64D-07 BMatP= 5.64D-07
 IDIUse=3 WtCom= 9.99D-01 WtEn= 1.21D-03
 Coeff-Com:  0.100D+01
 Coeff-En:   0.100D+01
 Coeff:      0.100D+01
 Gap=     0.432 Goal=   None    Shift=    0.000
 RMSDP=8.20D-06 MaxDP=6.91D-05 DE=-5.75D-05 OVMax= 1.66D-04

 Cycle   7  Pass 1  IDiag  1:
 RMSU=  8.01D-06    CP:  1.00D+00
 FoFJK:  IHMeth= 1 ICntrl=     0 DoSepK=T KAlg= 1 I1Cent= 0 FoldK=F
 E= -78.5861679879014     Delta-E=       -0.000000363622 Rises=F Damp=F
 DIIS: error= 2.09D-05 at cycle   2 NSaved=   2.
 NSaved= 2 IEnMin= 2 EnMin= -78.5861679879014     IErMin= 2 ErrMin= 2.09D-05
 ErrMax= 2.09D-05 EMaxC= 1.00D-01 BMatC= 1.23D-08 BMatP= 5.64D-07
 IDIUse=1 WtCom= 1.00D+00 WtEn= 0.00D+00
 Coeff-Com:  0.523D-02 0.995D+00
 Coeff:      0.523D-02 0.995D+00
 Gap=     0.432 Goal=   None    Shift=    0.000
 RMSDP=1.73D-06 MaxDP=2.25D-05 DE=-3.64D-07 OVMax= 5.77D-05

 Cycle   8  Pass 1  IDiag  1:
 RMSU=  1.15D-06    CP:  1.00D+00  1.04D+00
 FoFJK:  IHMeth= 1 ICntrl=     0 DoSepK=T KAlg= 1 I1Cent= 0 FoldK=F
 E= -78.5861679961778     Delta-E=       -0.000000008276 Rises=F Damp=F
 DIIS: error= 1.06D-05 at cycle   3 NSaved=   3.
 NSaved= 3 IEnMin= 3 EnMin= -78.5861679961778     IErMin= 3 ErrMin= 1.06D-05
 ErrMax= 1.06D-05 EMaxC= 1.00D-01 BMatC= 4.81D-09 BMatP= 1.23D-08
 IDIUse=1 WtCom= 1.00D+00 WtEn= 0.00D+00
 Coeff-Com: -0.217D-01 0.376D+00 0.646D+00
 Coeff:     -0.217D-01 0.376D+00 0.646D+00
 Gap=     0.432 Goal=   None    Shift=    0.000
 RMSDP=6.78D-07 MaxDP=9.48D-06 DE=-8.28D-09 OVMax= 2.06D-05

 Cycle   9  Pass 1  IDiag  1:
 RMSU=  2.45D-07    CP:  1.00D+00  1.05D+00  6.71D-01
 FoFJK:  IHMeth= 1 ICntrl=     0 DoSepK=T KAlg= 1 I1Cent= 0 FoldK=F
 E= -78.5861680008011     Delta-E=       -0.000000004623 Rises=F Damp=F
 DIIS: error= 1.25D-06 at cycle   4 NSaved=   4.
 NSaved= 4 IEnMin= 4 EnMin= -78.5861680008011     IErMin= 4 ErrMin= 1.25D-06
 ErrMax= 1.25D-06 EMaxC= 1.00D-01 BMatC= 2.72D-11 BMatP= 4.81D-09
 IDIUse=1 WtCom= 1.00D+00 WtEn= 0.00D+00
 Coeff-Com: -0.404D-03-0.199D-01 0.223D-01 0.998D+00
 Coeff:     -0.404D-03-0.199D-01 0.223D-01 0.998D+00
 Gap=     0.432 Goal=   None    Shift=    0.000
 RMSDP=1.12D-07 MaxDP=8.24D-07 DE=-4.62D-09 OVMax= 3.66D-06

 Cycle  10  Pass 1  IDiag  1:
 RMSU=  4.71D-08    CP:  1.00D+00  1.05D+00  6.97D-01  1.23D+00
 FoFJK:  IHMeth= 1 ICntrl=     0 DoSepK=T KAlg= 1 I1Cent= 0 FoldK=F
 E= -78.5861680008587     Delta-E=       -0.000000000058 Rises=F Damp=F
 DIIS: error= 2.43D-07 at cycle   5 NSaved=   5.
 NSaved= 5 IEnMin= 5 EnMin= -78.5861680008587     IErMin= 5 ErrMin= 2.43D-07
 ErrMax= 2.43D-07 EMaxC= 1.00D-01 BMatC= 1.43D-12 BMatP= 2.72D-11
 IDIUse=1 WtCom= 1.00D+00 WtEn= 0.00D+00
 Coeff-Com:  0.749D-03-0.156D-01-0.283D-01-0.190D-01 0.106D+01
 Coeff:      0.749D-03-0.156D-01-0.283D-01-0.190D-01 0.106D+01
 Gap=     0.432 Goal=   None    Shift=    0.000
 RMSDP=4.50D-08 MaxDP=2.76D-07 DE=-5.76D-11 OVMax= 1.05D-06

 Cycle  11  Pass 1  IDiag  1:
 RMSU=  1.35D-08    CP:  1.00D+00  1.05D+00  6.95D-01  1.33D+00  1.29D+00
 FoFJK:  IHMeth= 1 ICntrl=     0 DoSepK=T KAlg= 1 I1Cent= 0 FoldK=F
 E= -78.5861680008621     Delta-E=       -0.000000000003 Rises=F Damp=F
 DIIS: error= 4.51D-08 at cycle   6 NSaved=   6.
 NSaved= 6 IEnMin= 6 EnMin= -78.5861680008621     IErMin= 6 ErrMin= 4.51D-08
 ErrMax= 4.51D-08 EMaxC= 1.00D-01 BMatC= 2.44D-14 BMatP= 1.43D-12
 IDIUse=1 WtCom= 1.00D+00 WtEn= 0.00D+00
 Coeff-Com: -0.639D-04 0.272D-02 0.301D-02-0.284D-01-0.135D+00 0.116D+01
 Coeff:     -0.639D-04 0.272D-02 0.301D-02-0.284D-01-0.135D+00 0.116D+01
 Gap=     0.432 Goal=   None    Shift=    0.000
 RMSDP=1.24D-08 MaxDP=1.10D-07 DE=-3.45D-12 OVMax= 2.15D-07

 Cycle  12  Pass 1  IDiag  1:
 RMSU=  1.53D-09    CP:  1.00D+00  1.05D+00  6.94D-01  1.35D+00  1.38D+00
                    CP:  1.32D+00
 FoFJK:  IHMeth= 1 ICntrl=     0 DoSepK=T KAlg= 1 I1Cent= 0 FoldK=F
 E= -78.5861680008624     Delta-E=        0.000000000000 Rises=F Damp=F
 DIIS: error= 4.35D-09 at cycle   7 NSaved=   7.
 NSaved= 7 IEnMin= 7 EnMin= -78.5861680008624     IErMin= 7 ErrMin= 4.35D-09
 ErrMax= 4.35D-09 EMaxC= 1.00D-01 BMatC= 3.35D-16 BMatP= 2.44D-14
 IDIUse=1 WtCom= 1.00D+00 WtEn= 0.00D+00
 Coeff-Com:  0.507D-05-0.395D-03-0.459D-03 0.573D-02 0.205D-01-0.253D+00
 Coeff-Com:  0.123D+01
 Coeff:      0.507D-05-0.395D-03-0.459D-03 0.573D-02 0.205D-01-0.253D+00
 Coeff:      0.123D+01
 Gap=     0.432 Goal=   None    Shift=    0.000
 RMSDP=1.61D-09 MaxDP=1.62D-08 DE=-2.84D-13 OVMax= 2.32D-08

 SCF Done:  E(RwB97XD) =  -78.5861680009     A.U. after   12 cycles
             Convg  =    0.1609D-08             -V/T =  2.0066
 KE= 7.807104554153D+01 PE=-2.481439326285D+02 EE= 5.826121545621D+01
 Leave Link  502 at Wed May  3 10:14:44 2017, MaxMem=   33554432 cpu:      31.0
 (Enter /share/apps/gaussian09/g09/l601.exe)
 Copying SCF densities to generalized density rwf, IOpCl= 0 IROHF=0.

 **********************************************************************

            Population analysis using the SCF density.

 **********************************************************************

 Alpha  occ. eigenvalues --  -10.28850 -10.28754  -0.86186  -0.67298  -0.55419
 Alpha  occ. eigenvalues --   -0.51224  -0.43415  -0.35982
 Alpha virt. eigenvalues --    0.07190   0.14534   0.16740   0.17023   0.23061
 Alpha virt. eigenvalues --    0.27761   0.28650   0.29870   0.30239   0.34481
 Alpha virt. eigenvalues --    0.39626   0.42662   0.49372   0.53949   0.54629
 Alpha virt. eigenvalues --    0.56830   0.66911   0.70723   1.25939   1.28045
 Alpha virt. eigenvalues --    1.32248   1.34395   1.36044   1.38501   1.41569
 Alpha virt. eigenvalues --    1.51459   1.52976   1.54949   1.58242   1.75962
 Alpha virt. eigenvalues --    1.81527   1.82481   1.85464   1.91397   1.92524
 Alpha virt. eigenvalues --    2.03755   2.07921   2.13155   2.32122   2.33921
 Alpha virt. eigenvalues --    2.36724   2.45112   2.60042   2.64849   2.66922
 Alpha virt. eigenvalues --    2.73133   2.84620   3.05434   3.11130   3.25499
 Alpha virt. eigenvalues --    3.30680   3.65197  21.66589  22.20821
          Condensed to atoms (all electrons):
              1          2          3          4          5          6
     1  C    4.873772   0.626422   0.410363   0.410364  -0.036904  -0.036901
     2  C    0.626422   4.873772  -0.036904  -0.036901   0.410363   0.410364
     3  H    0.410363  -0.036904   0.535756  -0.030476   0.005031  -0.007325
     4  H    0.410364  -0.036901  -0.030476   0.535748  -0.007325   0.005030
     5  H   -0.036904   0.410363   0.005031  -0.007325   0.535756  -0.030476
     6  H   -0.036901   0.410364  -0.007325   0.005030  -0.030476   0.535748
 Mulliken atomic charges:
              1
     1  C   -0.247115
     2  C   -0.247115
     3  H    0.123555
     4  H    0.123560
     5  H    0.123555
     6  H    0.123560
 Sum of Mulliken atomic charges =   0.00000
 Mulliken charges with hydrogens summed into heavy atoms:
              1
     1  C    0.000000
     2  C    0.000000
 Sum of Mulliken charges with hydrogens summed into heavy atoms =   0.00000
 Electronic spatial extent (au):  <R**2>=            140.5783
 Charge=              0.0000 electrons
 Dipole moment (field-independent basis, Debye):
    X=              0.0000    Y=              0.0000    Z=              0.0000  Tot=              0.0000
 Quadrupole moment (field-independent basis, Debye-Ang):
   XX=            -12.0587   YY=            -12.3242   ZZ=            -15.7119
   XY=              0.0001   XZ=              0.0000   YZ=              0.0001
 Traceless Quadrupole moment (field-independent basis, Debye-Ang):
   XX=              1.3062   YY=              1.0407   ZZ=             -2.3470
   XY=              0.0001   XZ=              0.0000   YZ=              0.0001
 Octapole moment (field-independent basis, Debye-Ang**2):
  XXX=            -32.6182  YYY=            -16.0246  ZZZ=              0.0000  XYY=            -11.1121
  XXY=             -5.2263  XXZ=              0.0000  XZZ=            -14.1667  YZZ=             -6.8098
  YYZ=              0.0000  XYZ=              0.0001
 Hexadecapole moment (field-independent basis, Debye-Ang**3):
 XXXX=           -127.5962 YYYY=            -41.2173 ZZZZ=            -19.1261 XXXY=            -14.1367
 XXXZ=              0.0000 YYYX=            -14.4485 YYYZ=              0.0000 ZZZX=              0.0000
 ZZZY=             -0.0001 XXYY=            -25.4461 XXZZ=            -28.6026 YYZZ=            -11.4047
 XXYZ=              0.0002 YYXZ=              0.0001 ZZXY=             -6.1400
 N-N= 3.322550362990D+01 E-N=-2.481439325938D+02  KE= 7.807104554153D+01
 No NMR shielding tensors so no spin-rotation constants.
 Leave Link  601 at Wed May  3 10:14:44 2017, MaxMem=   33554432 cpu:       1.3
 (Enter /share/apps/gaussian09/g09/l701.exe)
 Compute integral first derivatives.
 ... and contract with generalized density number  0.
 R6Disp: Adding dispersion energy 1st derivatives to the gradient.
 Leave Link  701 at Wed May  3 10:14:44 2017, MaxMem=   33554432 cpu:       1.5
 (Enter /share/apps/gaussian09/g09/l702.exe)
 L702 exits ... SP integral derivatives will be done elsewhere.
 Leave Link  702 at Wed May  3 10:14:44 2017, MaxMem=   33554432 cpu:       0.3
 (Enter /share/apps/gaussian09/g09/l703.exe)
 Compute integral first derivatives, UseDBF=F ICtDFT=           0.
 Integral derivatives from FoFDir, PRISM(SPDF).
 Calling FoFJK, ICntrl=      2127 FMM=F ISym2X=0 I1Cent= 0 IOpClX= 0 NMat=1 NMatS=1 NMatT=0.
 FoFJK:  IHMeth= 1 ICntrl=  2127 DoSepK=T KAlg= 1 I1Cent= 0 FoldK=F
 FoFCou: FMM=F IPFlag=           0 FMFlag=      100000 FMFlg1=         800
         NFxFlg=           0 DoJE=F BraDBF=F KetDBF=F FulRan=T
         Omega=  0.000000  0.000000  1.000000  0.000000  0.000000 ICntrl=    2527 IOpCl=  0
         NMat0=    1 NMatS0=    1 NMatT0=    0 NMatD0=    1 NMtDS0=    0 NMtDT0=    0
         I1Cent=           0 NGrid=           0.
 Symmetry not used in FoFCou.
 Leave Link  703 at Wed May  3 10:14:45 2017, MaxMem=   33554432 cpu:       4.6
 (Enter /share/apps/gaussian09/g09/l716.exe)
 Dipole        = 1.10661702D-10 7.15294490D-11-4.49659540D-06
 -------------------------------------------------------------------
 Center     Atomic                   Forces (Hartrees/Bohr)
 Number     Number              X              Y              Z
 -------------------------------------------------------------------
      1        6          -0.007722807    0.000006553   -0.000001820
      2        6           0.007722807   -0.000006553    0.000000795
      3        1           0.007406249   -0.006043589    0.000001032
      4        1           0.007407711    0.006040930    0.000000259
      5        1          -0.007406250    0.006043589    0.000000495
      6        1          -0.007407711   -0.006040930   -0.000000761
 -------------------------------------------------------------------
 Cartesian Forces:  Max     0.007722807 RMS     0.005189587
 Leave Link  716 at Wed May  3 10:14:45 2017, MaxMem=   33554432 cpu:       0.3
 (Enter /share/apps/gaussian09/g09/l103.exe)

 GradGradGradGradGradGradGradGradGradGradGradGradGradGradGradGradGradGrad
 Berny optimization.
 Internal  Forces:  Max     0.009087727 RMS     0.005361028
 Search for a local minimum.
 Step number   1 out of a maximum of   25
 All quantities printed in internal units (Hartrees-Bohrs-Radians)
 RMS Force = .53610D-02 SwitMx=.10000D-02 MixMth= 1
 Mixed Optimization -- RFO/linear search
 Second derivative matrix not updated -- first step.
 The second derivative matrix:
                          R1        R2        R3        R4        R5
           R1           0.60481
           R2           0.00000   0.33875
           R3           0.00000   0.00000   0.33875
           R4           0.00000   0.00000   0.00000   0.33875
           R5           0.00000   0.00000   0.00000   0.00000   0.33875
           A1           0.00000   0.00000   0.00000   0.00000   0.00000
           A2           0.00000   0.00000   0.00000   0.00000   0.00000
           A3           0.00000   0.00000   0.00000   0.00000   0.00000
           A4           0.00000   0.00000   0.00000   0.00000   0.00000
           A5           0.00000   0.00000   0.00000   0.00000   0.00000
           A6           0.00000   0.00000   0.00000   0.00000   0.00000
           D1           0.00000   0.00000   0.00000   0.00000   0.00000
           D2           0.00000   0.00000   0.00000   0.00000   0.00000
           D3           0.00000   0.00000   0.00000   0.00000   0.00000
           D4           0.00000   0.00000   0.00000   0.00000   0.00000
                          A1        A2        A3        A4        A5
           A1           0.16000
           A2           0.00000   0.16000
           A3           0.00000   0.00000   0.16000
           A4           0.00000   0.00000   0.00000   0.16000
           A5           0.00000   0.00000   0.00000   0.00000   0.16000
           A6           0.00000   0.00000   0.00000   0.00000   0.00000
           D1           0.00000   0.00000   0.00000   0.00000   0.00000
           D2           0.00000   0.00000   0.00000   0.00000   0.00000
           D3           0.00000   0.00000   0.00000   0.00000   0.00000
           D4           0.00000   0.00000   0.00000   0.00000   0.00000
                          A6        D1        D2        D3        D4
           A6           0.16000
           D1           0.00000   0.03069
           D2           0.00000   0.00000   0.03069
           D3           0.00000   0.00000   0.00000   0.03069
           D4           0.00000   0.00000   0.00000   0.00000   0.03069
 ITU=  0
     Eigenvalues ---    0.03069   0.03069   0.03069   0.16000   0.16000
     Eigenvalues ---    0.16000   0.16000   0.33875   0.33875   0.33875
     Eigenvalues ---    0.33875   0.60481
 RFO step:  Lambda=-1.36720763D-03 EMin= 3.06874503D-02
 Linear search not attempted -- first point.
 Iteration  1 RMS(Cart)=  0.02241797 RMS(Int)=  0.00016934
 Iteration  2 RMS(Cart)=  0.00018648 RMS(Int)=  0.00000002
 Iteration  3 RMS(Cart)=  0.00000002 RMS(Int)=  0.00000000
 Variable       Old X    -DE/DX   Delta X   Delta X   Delta X     New X
                                 (Linear)    (Quad)   (Total)
    R1        2.50562  -0.00709   0.00000  -0.01170  -0.01170   2.49392
    R2        2.07542  -0.00909   0.00000  -0.02672  -0.02672   2.04870
    R3        2.07542  -0.00909   0.00000  -0.02672  -0.02672   2.04870
    R4        2.07542  -0.00909   0.00000  -0.02672  -0.02672   2.04870
    R5        2.07542  -0.00909   0.00000  -0.02672  -0.02672   2.04870
    A1        2.14180  -0.00205   0.00000  -0.01270  -0.01270   2.12910
    A2        2.14183  -0.00205   0.00000  -0.01273  -0.01273   2.12910
    A3        1.99956   0.00410   0.00000   0.02543   0.02543   2.02499
    A4        2.14180  -0.00205   0.00000  -0.01270  -0.01270   2.12910
    A5        2.14183  -0.00205   0.00000  -0.01273  -0.01273   2.12910
    A6        1.99956   0.00410   0.00000   0.02543   0.02543   2.02499
    D1       -3.14157   0.00000   0.00000  -0.00002  -0.00002   3.14159
    D2        0.00003   0.00000   0.00000  -0.00003  -0.00003   0.00000
    D3        0.00000   0.00000   0.00000   0.00000   0.00000   0.00000
    D4       -3.14159   0.00000   0.00000   0.00000   0.00000  -3.14159
         Item               Value     Threshold  Converged?
 Maximum Force            0.009088     0.000450     NO 
 RMS     Force            0.005361     0.000300     NO 
 Maximum Displacement     0.042306     0.001800     NO 
 RMS     Displacement     0.022385     0.001200     NO 
 Predicted change in Energy=-6.869757D-04
 GradGradGradGradGradGradGradGradGradGradGradGradGradGradGradGradGradGrad

 Leave Link  103 at Wed May  3 10:14:45 2017, MaxMem=   33554432 cpu:       0.0
 (Enter /share/apps/gaussian09/g09/l202.exe)
                          Input orientation:                          
 ---------------------------------------------------------------------
 Center     Atomic      Atomic             Coordinates (Angstroms)
 Number     Number       Type             X           Y           Z
 ---------------------------------------------------------------------
      1          6           0        0.241789    0.433423   -0.000007
      2          6           0        1.561514    0.433411    0.000000
      3          1           0       -0.332514    1.352939    0.000009
      4          1           0       -0.332535   -0.486077   -0.000025
      5          1           0        2.135817   -0.486104   -0.000012
      6          1           0        2.135838    1.352911    0.000021
 ---------------------------------------------------------------------
                    Distance matrix (angstroms):
                    1          2          3          4          5
     1  C    0.000000
     2  C    1.319726   0.000000
     3  H    1.084127   2.105439   0.000000
     4  H    1.084126   2.105441   1.839016   0.000000
     5  H    2.105439   1.084127   3.078105   2.468352   0.000000
     6  H    2.105441   1.084126   2.468352   3.078107   1.839016
                    6
     6  H    0.000000
 Symmetry turned off by external request.
 Stoichiometry    C2H4
 Framework group  C1[X(C2H4)]
 Deg. of freedom    12
 Full point group                 C1      NOp   1
 Rotational constants (GHZ):    148.2726950     30.4619702     25.2702989
 Leave Link  202 at Wed May  3 10:14:45 2017, MaxMem=   33554432 cpu:       0.0
 (Enter /share/apps/gaussian09/g09/l301.exe)
 Standard basis: TZVP (5D, 7F)
 Ernie: Thresh=  0.10000D-02 Tol=  0.10000D-05 Strict=F.
 Integral buffers will be    131072 words long.
 Raffenetti 2 integral format.
 Two-electron integral symmetry is turned off.
    62 basis functions,   102 primitive gaussians,    64 cartesian basis functions
     8 alpha electrons        8 beta electrons
       nuclear repulsion energy        33.5300576454 Hartrees.
 IExCor= 4639 DFT=T Ex+Corr=wB97XD ExCW=0 ScaHFX=  1.000000
 ScaDFX=  1.000000  1.000000  1.000000  1.000000 ScalE2=  1.000000  1.000000
 IRadAn=      0 IRanWt=     -1 IRanGd=            0 ICorTp=0
  HFx wShort=  0.000000 wLong=  0.200000 cFull=  0.222036 cShort=  0.000000 cLong=  0.777964
  DFx wShort=  0.000000 wLong=  0.200000 cFull=  0.000000 cShort=  0.000000 cLong=  1.000000
 NAtoms=    6 NActive=    6 NUniq=    6 SFac= 1.00D+00 NAtFMM=   60 NAOKFM=F Big=F
 R6Disp: Dispersion energy =        -0.0008255289 Hartrees.
 Nuclear repulsion after empirical dispersion term =       33.5292321165 Hartrees.
 Leave Link  301 at Wed May  3 10:14:45 2017, MaxMem=   33554432 cpu:       0.6
 (Enter /share/apps/gaussian09/g09/l302.exe)
 NPDir=0 NMtPBC=     1 NCelOv=     1 NCel=       1 NClECP=     1 NCelD=      1
         NCelK=      1 NCelE2=     1 NClLst=     1 CellRange=     0.0.
 One-electron integrals computed using PRISM.
 NBasis=    62 RedAO= T  NBF=    62
 NBsUse=    62 1.00D-06 NBFU=    62
 Precomputing XC quadrature grid using
 IXCGrd= 2 IRadAn=           0 IRanWt=          -1 IRanGd=           0 AccXCQ= 0.00D+00.
 NRdTot=     374 NPtTot=       47012 NUsed=       49721 NTot=       49753
 NSgBfM=    64    64    64    64    64 NAtAll=     6     6.
 Leave Link  302 at Wed May  3 10:14:45 2017, MaxMem=   33554432 cpu:       1.6
 (Enter /share/apps/gaussian09/g09/l303.exe)
 DipDrv:  MaxL=1.
 Leave Link  303 at Wed May  3 10:14:45 2017, MaxMem=   33554432 cpu:       0.4
 (Enter /share/apps/gaussian09/g09/l401.exe)
 Initial guess read from the read-write file.
 B after Tr=     0.000000    0.000000    0.000000
         Rot=    1.000000    0.000000    0.000000    0.000000 Ang=   0.00 deg.
 Guess basis will be translated and rotated to current coordinates.
 Generating alternative initial guess.
 Harris functional with IExCor= 4639 diagonalized for initial guess.
 ExpMin= 9.52D-02 ExpMax= 1.36D+04 ExpMxC= 4.63D+02 IAcc=2 IRadAn=         4 AccDes= 0.00D+00
 HarFok:  IExCor= 4639 AccDes= 0.00D+00 IRadAn=         4 IDoV= 1
 ScaDFX=  1.000000  1.000000  1.000000  1.000000
 FoFCou: FMM=F IPFlag=           0 FMFlag=      100000 FMFlg1=           0
         NFxFlg=           0 DoJE=T BraDBF=F KetDBF=T FulRan=T
         Omega=  0.000000  0.000000  1.000000  0.000000  0.000000 ICntrl=     500 IOpCl=  0
         NMat0=    1 NMatS0=    1 NMatT0=    0 NMatD0=    1 NMtDS0=    0 NMtDT0=    0
         I1Cent=           4 NGrid=           0.
 Symmetry not used in FoFCou.
 Harris En= -74.6926439308194    
 Leave Link  401 at Wed May  3 10:14:45 2017, MaxMem=   33554432 cpu:       2.8
 (Enter /share/apps/gaussian09/g09/l502.exe)
 Closed shell SCF:
 Requested convergence on RMS density matrix=1.00D-08 within 128 cycles.
 Requested convergence on MAX density matrix=1.00D-06.
 Requested convergence on             energy=1.00D-06.
 No special actions if energy rises.
 Using DIIS extrapolation, IDIIS=  1040.
 Two-electron integral symmetry not used.
        49654 words used for storage of precomputed grid.
 IEnd=       80996 IEndB=       80996 NGot=    33554432 MDV=    33494237
 LenX=    33494237 LenY=    33489700
 Fock matrices will be formed incrementally for  20 cycles.
 Integral accuracy reduced to 1.0D-05 until final iterations.

 Cycle   1  Pass 0  IDiag  1:
 FoFJK:  IHMeth= 1 ICntrl=     0 DoSepK=T KAlg= 1 I1Cent= 0 FoldK=F
 FoFCou: FMM=F IPFlag=           0 FMFlag=      100000 FMFlg1=           0
         NFxFlg=           0 DoJE=T BraDBF=F KetDBF=F FulRan=T
         Omega=  0.000000  0.000000  1.000000  0.000000  0.000000 ICntrl=     500 IOpCl=  0
         NMat0=    1 NMatS0=    1 NMatT0=    0 NMatD0=    1 NMtDS0=    0 NMtDT0=    0
         I1Cent=           0 NGrid=           0.
 Symmetry not used in FoFCou.
 E= -78.5867179194372    
 DIIS: error= 1.84D-03 at cycle   1 NSaved=   1.
 NSaved= 1 IEnMin= 1 EnMin= -78.5867179194372     IErMin= 1 ErrMin= 1.84D-03
 ErrMax= 1.84D-03 EMaxC= 1.00D-01 BMatC= 1.38D-04 BMatP= 1.38D-04
 IDIUse=3 WtCom= 9.82D-01 WtEn= 1.84D-02
 Coeff-Com:  0.100D+01
 Coeff-En:   0.100D+01
 Coeff:      0.100D+01
 Gap=     0.435 Goal=   None    Shift=    0.000
 GapD=    0.435 DampG=2.000 DampE=1.000 DampFc=2.0000 IDamp=-1.
 RMSDP=1.54D-04 MaxDP=2.02D-03              OVMax= 4.35D-03

 Cycle   2  Pass 0  IDiag  1:
 RMSU=  1.08D-04    CP:  1.00D+00
 FoFJK:  IHMeth= 1 ICntrl=     0 DoSepK=T KAlg= 1 I1Cent= 0 FoldK=F
 E= -78.5868387993323     Delta-E=       -0.000120879895 Rises=F Damp=F
 DIIS: error= 7.02D-04 at cycle   2 NSaved=   2.
 NSaved= 2 IEnMin= 2 EnMin= -78.5868387993323     IErMin= 2 ErrMin= 7.02D-04
 ErrMax= 7.02D-04 EMaxC= 1.00D-01 BMatC= 1.38D-05 BMatP= 1.38D-04
 IDIUse=3 WtCom= 9.93D-01 WtEn= 7.02D-03
 Coeff-Com:  0.133D+00 0.867D+00
 Coeff-En:   0.000D+00 0.100D+01
 Coeff:      0.132D+00 0.868D+00
 Gap=     0.434 Goal=   None    Shift=    0.000
 RMSDP=4.78D-05 MaxDP=7.99D-04 DE=-1.21D-04 OVMax= 1.62D-03

 Cycle   3  Pass 0  IDiag  1:
 RMSU=  3.01D-05    CP:  1.00D+00  8.82D-01
 FoFJK:  IHMeth= 1 ICntrl=     0 DoSepK=T KAlg= 1 I1Cent= 0 FoldK=F
 E= -78.5868497134035     Delta-E=       -0.000010914071 Rises=F Damp=F
 DIIS: error= 3.14D-04 at cycle   3 NSaved=   3.
 NSaved= 3 IEnMin= 3 EnMin= -78.5868497134035     IErMin= 3 ErrMin= 3.14D-04
 ErrMax= 3.14D-04 EMaxC= 1.00D-01 BMatC= 2.96D-06 BMatP= 1.38D-05
 IDIUse=3 WtCom= 9.97D-01 WtEn= 3.14D-03
 Coeff-Com: -0.223D-01 0.300D+00 0.722D+00
 Coeff-En:   0.000D+00 0.000D+00 0.100D+01
 Coeff:     -0.222D-01 0.299D+00 0.723D+00
 Gap=     0.434 Goal=   None    Shift=    0.000
 RMSDP=1.77D-05 MaxDP=2.44D-04 DE=-1.09D-05 OVMax= 5.61D-04

 Cycle   4  Pass 0  IDiag  1:
 RMSU=  6.33D-06    CP:  1.00D+00  9.62D-01  7.96D-01
 FoFJK:  IHMeth= 1 ICntrl=     0 DoSepK=T KAlg= 1 I1Cent= 0 FoldK=F
 E= -78.5868526649895     Delta-E=       -0.000002951586 Rises=F Damp=F
 DIIS: error= 2.73D-05 at cycle   4 NSaved=   4.
 NSaved= 4 IEnMin= 4 EnMin= -78.5868526649895     IErMin= 4 ErrMin= 2.73D-05
 ErrMax= 2.73D-05 EMaxC= 1.00D-01 BMatC= 1.43D-08 BMatP= 2.96D-06
 IDIUse=1 WtCom= 1.00D+00 WtEn= 0.00D+00
 Coeff-Com: -0.193D-02-0.275D-01-0.218D-01 0.105D+01
 Coeff:     -0.193D-02-0.275D-01-0.218D-01 0.105D+01
 Gap=     0.434 Goal=   None    Shift=    0.000
 RMSDP=3.44D-06 MaxDP=2.39D-05 DE=-2.95D-06 OVMax= 8.54D-05

 Initial convergence to 1.0D-05 achieved.  Increase integral accuracy.
 Cycle   5  Pass 1  IDiag  1:
 FoFJK:  IHMeth= 1 ICntrl=     0 DoSepK=T KAlg= 1 I1Cent= 0 FoldK=F
 E= -78.5868841703140     Delta-E=       -0.000031505324 Rises=F Damp=F
 DIIS: error= 1.12D-04 at cycle   1 NSaved=   1.
 NSaved= 1 IEnMin= 1 EnMin= -78.5868841703140     IErMin= 1 ErrMin= 1.12D-04
 ErrMax= 1.12D-04 EMaxC= 1.00D-01 BMatC= 5.77D-07 BMatP= 5.77D-07
 IDIUse=3 WtCom= 9.99D-01 WtEn= 1.12D-03
 Coeff-Com:  0.100D+01
 Coeff-En:   0.100D+01
 Coeff:      0.100D+01
 Gap=     0.434 Goal=   None    Shift=    0.000
 RMSDP=3.44D-06 MaxDP=2.39D-05 DE=-3.15D-05 OVMax= 1.78D-04

 Cycle   6  Pass 1  IDiag  1:
 RMSU=  8.81D-06    CP:  1.00D+00
 FoFJK:  IHMeth= 1 ICntrl=     0 DoSepK=T KAlg= 1 I1Cent= 0 FoldK=F
 E= -78.5868845732112     Delta-E=       -0.000000402897 Rises=F Damp=F
 DIIS: error= 2.03D-05 at cycle   2 NSaved=   2.
 NSaved= 2 IEnMin= 2 EnMin= -78.5868845732112     IErMin= 2 ErrMin= 2.03D-05
 ErrMax= 2.03D-05 EMaxC= 1.00D-01 BMatC= 9.77D-09 BMatP= 5.77D-07
 IDIUse=1 WtCom= 1.00D+00 WtEn= 0.00D+00
 Coeff-Com: -0.209D-02 0.100D+01
 Coeff:     -0.209D-02 0.100D+01
 Gap=     0.434 Goal=   None    Shift=    0.000
 RMSDP=1.60D-06 MaxDP=2.08D-05 DE=-4.03D-07 OVMax= 4.79D-05

 Cycle   7  Pass 1  IDiag  1:
 RMSU=  1.03D-06    CP:  1.00D+00  1.05D+00
 FoFJK:  IHMeth= 1 ICntrl=     0 DoSepK=T KAlg= 1 I1Cent= 0 FoldK=F
 E= -78.5868845807126     Delta-E=       -0.000000007501 Rises=F Damp=F
 DIIS: error= 7.92D-06 at cycle   3 NSaved=   3.
 NSaved= 3 IEnMin= 3 EnMin= -78.5868845807126     IErMin= 3 ErrMin= 7.92D-06
 ErrMax= 7.92D-06 EMaxC= 1.00D-01 BMatC= 2.87D-09 BMatP= 9.77D-09
 IDIUse=1 WtCom= 1.00D+00 WtEn= 0.00D+00
 Coeff-Com: -0.170D-01 0.331D+00 0.686D+00
 Coeff:     -0.170D-01 0.331D+00 0.686D+00
 Gap=     0.434 Goal=   None    Shift=    0.000
 RMSDP=5.57D-07 MaxDP=7.89D-06 DE=-7.50D-09 OVMax= 1.82D-05

 Cycle   8  Pass 1  IDiag  1:
 RMSU=  2.76D-07    CP:  1.00D+00  1.05D+00  7.51D-01
 FoFJK:  IHMeth= 1 ICntrl=     0 DoSepK=T KAlg= 1 I1Cent= 0 FoldK=F
 E= -78.5868845834532     Delta-E=       -0.000000002741 Rises=F Damp=F
 DIIS: error= 1.77D-06 at cycle   4 NSaved=   4.
 NSaved= 4 IEnMin= 4 EnMin= -78.5868845834532     IErMin= 4 ErrMin= 1.77D-06
 ErrMax= 1.77D-06 EMaxC= 1.00D-01 BMatC= 6.55D-11 BMatP= 2.87D-09
 IDIUse=1 WtCom= 1.00D+00 WtEn= 0.00D+00
 Coeff-Com: -0.186D-02-0.553D-02 0.106D+00 0.901D+00
 Coeff:     -0.186D-02-0.553D-02 0.106D+00 0.901D+00
 Gap=     0.434 Goal=   None    Shift=    0.000
 RMSDP=1.23D-07 MaxDP=1.29D-06 DE=-2.74D-09 OVMax= 3.86D-06

 Cycle   9  Pass 1  IDiag  1:
 RMSU=  5.45D-08    CP:  1.00D+00  1.05D+00  8.08D-01  1.11D+00
 FoFJK:  IHMeth= 1 ICntrl=     0 DoSepK=T KAlg= 1 I1Cent= 0 FoldK=F
 E= -78.5868845835438     Delta-E=       -0.000000000091 Rises=F Damp=F
 DIIS: error= 3.00D-07 at cycle   5 NSaved=   5.
 NSaved= 5 IEnMin= 5 EnMin= -78.5868845835438     IErMin= 5 ErrMin= 3.00D-07
 ErrMax= 3.00D-07 EMaxC= 1.00D-01 BMatC= 1.84D-12 BMatP= 6.55D-11
 IDIUse=1 WtCom= 1.00D+00 WtEn= 0.00D+00
 Coeff-Com:  0.670D-03-0.161D-01-0.341D-01-0.168D-01 0.107D+01
 Coeff:      0.670D-03-0.161D-01-0.341D-01-0.168D-01 0.107D+01
 Gap=     0.434 Goal=   None    Shift=    0.000
 RMSDP=4.90D-08 MaxDP=4.05D-07 DE=-9.06D-11 OVMax= 1.23D-06

 Cycle  10  Pass 1  IDiag  1:
 RMSU=  1.29D-08    CP:  1.00D+00  1.05D+00  8.16D-01  1.21D+00  1.23D+00
 FoFJK:  IHMeth= 1 ICntrl=     0 DoSepK=T KAlg= 1 I1Cent= 0 FoldK=F
 E= -78.5868845835478     Delta-E=       -0.000000000004 Rises=F Damp=F
 DIIS: error= 2.21D-08 at cycle   6 NSaved=   6.
 NSaved= 6 IEnMin= 6 EnMin= -78.5868845835478     IErMin= 6 ErrMin= 2.21D-08
 ErrMax= 2.21D-08 EMaxC= 1.00D-01 BMatC= 1.85D-14 BMatP= 1.84D-12
 IDIUse=1 WtCom= 1.00D+00 WtEn= 0.00D+00
 Coeff-Com: -0.167D-04 0.185D-02 0.197D-02-0.176D-01-0.119D+00 0.113D+01
 Coeff:     -0.167D-04 0.185D-02 0.197D-02-0.176D-01-0.119D+00 0.113D+01
 Gap=     0.434 Goal=   None    Shift=    0.000
 RMSDP=1.05D-08 MaxDP=9.87D-08 DE=-3.92D-12 OVMax= 1.55D-07

 Cycle  11  Pass 1  IDiag  1:
 RMSU=  1.39D-09    CP:  1.00D+00  1.05D+00  8.18D-01  1.23D+00  1.29D+00
                    CP:  1.29D+00
 FoFJK:  IHMeth= 1 ICntrl=     0 DoSepK=T KAlg= 1 I1Cent= 0 FoldK=F
 E= -78.5868845835481     Delta-E=        0.000000000000 Rises=F Damp=F
 DIIS: error= 1.54D-09 at cycle   7 NSaved=   7.
 NSaved= 7 IEnMin= 7 EnMin= -78.5868845835481     IErMin= 7 ErrMin= 1.54D-09
 ErrMax= 1.54D-09 EMaxC= 1.00D-01 BMatC= 1.07D-16 BMatP= 1.85D-14
 IDIUse=1 WtCom= 1.00D+00 WtEn= 0.00D+00
 Coeff-Com: -0.278D-05-0.621D-04-0.833D-04 0.161D-02 0.577D-02-0.112D+00
 Coeff-Com:  0.111D+01
 Coeff:     -0.278D-05-0.621D-04-0.833D-04 0.161D-02 0.577D-02-0.112D+00
 Coeff:      0.111D+01
 Gap=     0.434 Goal=   None    Shift=    0.000
 RMSDP=1.21D-09 MaxDP=1.21D-08 DE=-3.27D-13 OVMax= 9.43D-09

 SCF Done:  E(RwB97XD) =  -78.5868845835     A.U. after   11 cycles
             Convg  =    0.1206D-08             -V/T =  2.0053
 KE= 7.816964849803D+01 PE=-2.488298559798D+02 EE= 5.854409078174D+01
 Leave Link  502 at Wed May  3 10:14:49 2017, MaxMem=   33554432 cpu:      29.3
 (Enter /share/apps/gaussian09/g09/l701.exe)
 Compute integral first derivatives.
 ... and contract with generalized density number  0.
 R6Disp: Adding dispersion energy 1st derivatives to the gradient.
 Leave Link  701 at Wed May  3 10:14:49 2017, MaxMem=   33554432 cpu:       1.5
 (Enter /share/apps/gaussian09/g09/l702.exe)
 L702 exits ... SP integral derivatives will be done elsewhere.
 Leave Link  702 at Wed May  3 10:14:49 2017, MaxMem=   33554432 cpu:       0.3
 (Enter /share/apps/gaussian09/g09/l703.exe)
 Compute integral first derivatives, UseDBF=F ICtDFT=           0.
 Integral derivatives from FoFDir, PRISM(SPDF).
 Calling FoFJK, ICntrl=      2127 FMM=F ISym2X=0 I1Cent= 0 IOpClX= 0 NMat=1 NMatS=1 NMatT=0.
 FoFJK:  IHMeth= 1 ICntrl=  2127 DoSepK=T KAlg= 1 I1Cent= 0 FoldK=F
 FoFCou: FMM=F IPFlag=           0 FMFlag=      100000 FMFlg1=         800
         NFxFlg=           0 DoJE=F BraDBF=F KetDBF=F FulRan=T
         Omega=  0.000000  0.000000  1.000000  0.000000  0.000000 ICntrl=    2527 IOpCl=  0
         NMat0=    1 NMatS0=    1 NMatT0=    0 NMatD0=    1 NMtDS0=    0 NMtDT0=    0
         I1Cent=           0 NGrid=           0.
 Symmetry not used in FoFCou.
 Leave Link  703 at Wed May  3 10:14:50 2017, MaxMem=   33554432 cpu:       4.6
 (Enter /share/apps/gaussian09/g09/l716.exe)
 Dipole        =-6.07878192D-11-4.53188598D-11 2.06214995D-06
 -------------------------------------------------------------------
 Center     Atomic                   Forces (Hartrees/Bohr)
 Number     Number              X              Y              Z
 -------------------------------------------------------------------
      1        6          -0.004347518    0.000001433    0.000000284
      2        6           0.004347517   -0.000001433    0.000000131
      3        1           0.000728887    0.000587401   -0.000000133
      4        1           0.000728813   -0.000588185   -0.000000121
      5        1          -0.000728887   -0.000587401   -0.000000100
      6        1          -0.000728813    0.000588186   -0.000000060
 -------------------------------------------------------------------
 Cartesian Forces:  Max     0.004347518 RMS     0.001514902
 Leave Link  716 at Wed May  3 10:14:50 2017, MaxMem=   33554432 cpu:       0.3
 (Enter /share/apps/gaussian09/g09/l103.exe)

 GradGradGradGradGradGradGradGradGradGradGradGradGradGradGradGradGradGrad
 Berny optimization.
 Using GEDIIS/GDIIS optimizer.
 Internal  Forces:  Max     0.002889817 RMS     0.000939405
 Search for a local minimum.
 Step number   2 out of a maximum of   25
 All quantities printed in internal units (Hartrees-Bohrs-Radians)
 RMS Force = .93940D-03 SwitMx=.10000D-02 MixMth= 2
 Mixed Optimization -- En-DIIS/RFO-DIIS
 Update second derivatives using D2CorX and points    1    2
 DE= -7.17D-04 DEPred=-6.87D-04 R= 1.04D+00
 SS=  1.41D+00  RLast= 7.02D-02 DXNew= 5.0454D-01 2.1070D-01
 Trust test= 1.04D+00 RLast= 7.02D-02 DXMaxT set to 3.00D-01
 The second derivative matrix:
                          R1        R2        R3        R4        R5
           R1           0.64370
           R2           0.02269   0.34283
           R3           0.02270   0.00409   0.34285
           R4           0.02269   0.00409   0.00409   0.34283
           R5           0.02270   0.00409   0.00410   0.00409   0.34285
           A1           0.00016  -0.00363  -0.00363  -0.00363  -0.00363
           A2           0.00017  -0.00363  -0.00363  -0.00363  -0.00363
           A3          -0.00033   0.00726   0.00726   0.00726   0.00726
           A4           0.00016  -0.00363  -0.00363  -0.00363  -0.00363
           A5           0.00017  -0.00363  -0.00363  -0.00363  -0.00363
           A6          -0.00033   0.00726   0.00726   0.00726   0.00726
           D1           0.00000   0.00000   0.00000   0.00000   0.00000
           D2           0.00000   0.00000   0.00000   0.00000   0.00000
           D3           0.00000   0.00000   0.00000   0.00000   0.00000
           D4           0.00000   0.00000   0.00000   0.00000   0.00000
                          A1        A2        A3        A4        A5
           A1           0.15849
           A2          -0.00152   0.15848
           A3           0.00303   0.00304   0.15393
           A4          -0.00151  -0.00152   0.00303   0.15849
           A5          -0.00152  -0.00152   0.00304  -0.00152   0.15848
           A6           0.00303   0.00304  -0.00607   0.00303   0.00304
           D1           0.00000   0.00000   0.00000   0.00000   0.00000
           D2           0.00000   0.00000   0.00000   0.00000   0.00000
           D3           0.00000   0.00000   0.00000   0.00000   0.00000
           D4           0.00000   0.00000   0.00000   0.00000   0.00000
                          A6        D1        D2        D3        D4
           A6           0.15393
           D1           0.00000   0.03069
           D2           0.00000   0.00000   0.03069
           D3           0.00000   0.00000   0.00000   0.03069
           D4           0.00000   0.00000   0.00000   0.00000   0.03069
 ITU=  1  0
 Use linear search instead of GDIIS.
     Eigenvalues ---    0.03069   0.03069   0.03069   0.13881   0.16000
     Eigenvalues ---    0.16000   0.16000   0.33875   0.33875   0.33875
     Eigenvalues ---    0.35112   0.65069
 RFO step:  Lambda=-4.52131428D-05 EMin= 3.06874502D-02
 Quartic linear search produced a step of  0.03745.
 Iteration  1 RMS(Cart)=  0.00386729 RMS(Int)=  0.00001075
 Iteration  2 RMS(Cart)=  0.00001073 RMS(Int)=  0.00000000
 Iteration  3 RMS(Cart)=  0.00000000 RMS(Int)=  0.00000000
 Variable       Old X    -DE/DX   Delta X   Delta X   Delta X     New X
                                 (Linear)    (Quad)   (Total)
    R1        2.49392   0.00289  -0.00044   0.00502   0.00458   2.49850
    R2        2.04870   0.00011  -0.00100   0.00050  -0.00050   2.04820
    R3        2.04870   0.00011  -0.00100   0.00050  -0.00050   2.04820
    R4        2.04870   0.00011  -0.00100   0.00050  -0.00050   2.04820
    R5        2.04870   0.00011  -0.00100   0.00050  -0.00050   2.04820
    A1        2.12910  -0.00063  -0.00048  -0.00402  -0.00450   2.12460
    A2        2.12910  -0.00064  -0.00048  -0.00403  -0.00450   2.12460
    A3        2.02499   0.00127   0.00095   0.00805   0.00900   2.03399
    A4        2.12910  -0.00063  -0.00048  -0.00402  -0.00450   2.12460
    A5        2.12910  -0.00064  -0.00048  -0.00403  -0.00450   2.12460
    A6        2.02499   0.00127   0.00095   0.00805   0.00900   2.03399
    D1        3.14159   0.00000   0.00000   0.00001   0.00001  -3.14159
    D2        0.00000   0.00000   0.00000   0.00000   0.00000   0.00000
    D3        0.00000   0.00000   0.00000   0.00000   0.00000   0.00000
    D4       -3.14159   0.00000   0.00000  -0.00001  -0.00001   3.14159
         Item               Value     Threshold  Converged?
 Maximum Force            0.002890     0.000450     NO 
 RMS     Force            0.000939     0.000300     NO 
 Maximum Displacement     0.005806     0.001800     NO 
 RMS     Displacement     0.003865     0.001200     NO 
 Predicted change in Energy=-2.377323D-05
 GradGradGradGradGradGradGradGradGradGradGradGradGradGradGradGradGradGrad

 Leave Link  103 at Wed May  3 10:14:50 2017, MaxMem=   33554432 cpu:       0.0
 (Enter /share/apps/gaussian09/g09/l202.exe)
                          Input orientation:                          
 ---------------------------------------------------------------------
 Center     Atomic      Atomic             Coordinates (Angstroms)
 Number     Number       Type             X           Y           Z
 ---------------------------------------------------------------------
      1          6           0        0.240577    0.433425   -0.000005
      2          6           0        1.562726    0.433410    0.000001
      3          1           0       -0.329443    1.355288    0.000008
      4          1           0       -0.329463   -0.488427   -0.000026
      5          1           0        2.132745   -0.488454   -0.000013
      6          1           0        2.132766    1.355261    0.000020
 ---------------------------------------------------------------------
                    Distance matrix (angstroms):
                    1          2          3          4          5
     1  C    0.000000
     2  C    1.322149   0.000000
     3  H    1.083861   2.104795   0.000000
     4  H    1.083861   2.104795   1.843715   0.000000
     5  H    2.104795   1.083861   3.075997   2.462208   0.000000
     6  H    2.104795   1.083861   2.462208   3.075996   1.843715
                    6
     6  H    0.000000
 Symmetry turned off by external request.
 Stoichiometry    C2H4
 Framework group  C1[X(C2H4)]
 Deg. of freedom    12
 Full point group                 C1      NOp   1
 Rotational constants (GHZ):    147.5178313     30.4474874     25.2383292
 Leave Link  202 at Wed May  3 10:14:50 2017, MaxMem=   33554432 cpu:       0.0
 (Enter /share/apps/gaussian09/g09/l301.exe)
 Standard basis: TZVP (5D, 7F)
 Ernie: Thresh=  0.10000D-02 Tol=  0.10000D-05 Strict=F.
 Integral buffers will be    131072 words long.
 Raffenetti 2 integral format.
 Two-electron integral symmetry is turned off.
    62 basis functions,   102 primitive gaussians,    64 cartesian basis functions
     8 alpha electrons        8 beta electrons
       nuclear repulsion energy        33.5081511972 Hartrees.
 IExCor= 4639 DFT=T Ex+Corr=wB97XD ExCW=0 ScaHFX=  1.000000
 ScaDFX=  1.000000  1.000000  1.000000  1.000000 ScalE2=  1.000000  1.000000
 IRadAn=      0 IRanWt=     -1 IRanGd=            0 ICorTp=0
  HFx wShort=  0.000000 wLong=  0.200000 cFull=  0.222036 cShort=  0.000000 cLong=  0.777964
  DFx wShort=  0.000000 wLong=  0.200000 cFull=  0.000000 cShort=  0.000000 cLong=  1.000000
 NAtoms=    6 NActive=    6 NUniq=    6 SFac= 1.00D+00 NAtFMM=   60 NAOKFM=F Big=F
 R6Disp: Dispersion energy =        -0.0008293625 Hartrees.
 Nuclear repulsion after empirical dispersion term =       33.5073218348 Hartrees.
 Leave Link  301 at Wed May  3 10:14:50 2017, MaxMem=   33554432 cpu:       0.6
 (Enter /share/apps/gaussian09/g09/l302.exe)
 NPDir=0 NMtPBC=     1 NCelOv=     1 NCel=       1 NClECP=     1 NCelD=      1
         NCelK=      1 NCelE2=     1 NClLst=     1 CellRange=     0.0.
 One-electron integrals computed using PRISM.
 NBasis=    62 RedAO= T  NBF=    62
 NBsUse=    62 1.00D-06 NBFU=    62
 Precomputing XC quadrature grid using
 IXCGrd= 2 IRadAn=           0 IRanWt=          -1 IRanGd=           0 AccXCQ= 0.00D+00.
 NRdTot=     374 NPtTot=       47012 NUsed=       49721 NTot=       49753
 NSgBfM=    64    64    64    64    64 NAtAll=     6     6.
 Leave Link  302 at Wed May  3 10:14:50 2017, MaxMem=   33554432 cpu:       1.6
 (Enter /share/apps/gaussian09/g09/l303.exe)
 DipDrv:  MaxL=1.
 Leave Link  303 at Wed May  3 10:14:50 2017, MaxMem=   33554432 cpu:       0.4
 (Enter /share/apps/gaussian09/g09/l401.exe)
 Initial guess read from the read-write file.
 B after Tr=     0.000000    0.000000    0.000000
         Rot=    1.000000    0.000000    0.000000    0.000000 Ang=   0.00 deg.
 Guess basis will be translated and rotated to current coordinates.
 Leave Link  401 at Wed May  3 10:14:51 2017, MaxMem=   33554432 cpu:       1.1
 (Enter /share/apps/gaussian09/g09/l502.exe)
 Closed shell SCF:
 Requested convergence on RMS density matrix=1.00D-08 within 128 cycles.
 Requested convergence on MAX density matrix=1.00D-06.
 Requested convergence on             energy=1.00D-06.
 No special actions if energy rises.
 Using DIIS extrapolation, IDIIS=  1040.
 Two-electron integral symmetry not used.
        49654 words used for storage of precomputed grid.
 IEnd=       80996 IEndB=       80996 NGot=    33554432 MDV=    33494237
 LenX=    33494237 LenY=    33489700
 Fock matrices will be formed incrementally for  20 cycles.

 Cycle   1  Pass 1  IDiag  1:
 FoFJK:  IHMeth= 1 ICntrl=     0 DoSepK=T KAlg= 1 I1Cent= 0 FoldK=F
 FoFCou: FMM=F IPFlag=           0 FMFlag=      100000 FMFlg1=           0
         NFxFlg=           0 DoJE=T BraDBF=F KetDBF=F FulRan=T
         Omega=  0.000000  0.000000  1.000000  0.000000  0.000000 ICntrl=     500 IOpCl=  0
         NMat0=    1 NMatS0=    1 NMatT0=    0 NMatD0=    1 NMtDS0=    0 NMtDT0=    0
         I1Cent=           0 NGrid=           0.
 Symmetry not used in FoFCou.
 E= -78.5869089416205    
 DIIS: error= 2.90D-04 at cycle   1 NSaved=   1.
 NSaved= 1 IEnMin= 1 EnMin= -78.5869089416205     IErMin= 1 ErrMin= 2.90D-04
 ErrMax= 2.90D-04 EMaxC= 1.00D-01 BMatC= 4.34D-06 BMatP= 4.34D-06
 IDIUse=3 WtCom= 9.97D-01 WtEn= 2.90D-03
 Coeff-Com:  0.100D+01
 Coeff-En:   0.100D+01
 Coeff:      0.100D+01
 Gap=     0.433 Goal=   None    Shift=    0.000
 RMSDP=2.97D-05 MaxDP=2.92D-04              OVMax= 6.28D-04

 Cycle   2  Pass 1  IDiag  1:
 RMSU=  2.09D-05    CP:  1.00D+00
 FoFJK:  IHMeth= 1 ICntrl=     0 DoSepK=T KAlg= 1 I1Cent= 0 FoldK=F
 E= -78.5869135300686     Delta-E=       -0.000004588448 Rises=F Damp=F
 DIIS: error= 1.07D-04 at cycle   2 NSaved=   2.
 NSaved= 2 IEnMin= 2 EnMin= -78.5869135300686     IErMin= 2 ErrMin= 1.07D-04
 ErrMax= 1.07D-04 EMaxC= 1.00D-01 BMatC= 2.02D-07 BMatP= 4.34D-06
 IDIUse=3 WtCom= 9.99D-01 WtEn= 1.07D-03
 Coeff-Com: -0.227D-01 0.102D+01
 Coeff-En:   0.000D+00 0.100D+01
 Coeff:     -0.227D-01 0.102D+01
 Gap=     0.433 Goal=   None    Shift=    0.000
 RMSDP=8.37D-06 MaxDP=1.06D-04 DE=-4.59D-06 OVMax= 3.07D-04

 Cycle   3  Pass 1  IDiag  1:
 RMSU=  5.30D-06    CP:  1.00D+00  1.12D+00
 FoFJK:  IHMeth= 1 ICntrl=     0 DoSepK=T KAlg= 1 I1Cent= 0 FoldK=F
 E= -78.5869137396057     Delta-E=       -0.000000209537 Rises=F Damp=F
 DIIS: error= 5.01D-05 at cycle   3 NSaved=   3.
 NSaved= 3 IEnMin= 3 EnMin= -78.5869137396057     IErMin= 3 ErrMin= 5.01D-05
 ErrMax= 5.01D-05 EMaxC= 1.00D-01 BMatC= 6.89D-08 BMatP= 2.02D-07
 IDIUse=1 WtCom= 1.00D+00 WtEn= 0.00D+00
 Coeff-Com: -0.543D-01 0.373D+00 0.681D+00
 Coeff:     -0.543D-01 0.373D+00 0.681D+00
 Gap=     0.433 Goal=   None    Shift=    0.000
 RMSDP=2.60D-06 MaxDP=3.13D-05 DE=-2.10D-07 OVMax= 1.01D-04

 Cycle   4  Pass 1  IDiag  1:
 RMSU=  1.34D-06    CP:  1.00D+00  1.15D+00  8.27D-01
 FoFJK:  IHMeth= 1 ICntrl=     0 DoSepK=T KAlg= 1 I1Cent= 0 FoldK=F
 E= -78.5869138116142     Delta-E=       -0.000000072009 Rises=F Damp=F
 DIIS: error= 6.84D-06 at cycle   4 NSaved=   4.
 NSaved= 4 IEnMin= 4 EnMin= -78.5869138116142     IErMin= 4 ErrMin= 6.84D-06
 ErrMax= 6.84D-06 EMaxC= 1.00D-01 BMatC= 6.61D-10 BMatP= 6.89D-08
 IDIUse=1 WtCom= 1.00D+00 WtEn= 0.00D+00
 Coeff-Com:  0.906D-02-0.975D-01-0.791D-01 0.117D+01
 Coeff:      0.906D-02-0.975D-01-0.791D-01 0.117D+01
 Gap=     0.433 Goal=   None    Shift=    0.000
 RMSDP=1.03D-06 MaxDP=7.44D-06 DE=-7.20D-08 OVMax= 2.40D-05

 Cycle   5  Pass 1  IDiag  1:
 RMSU=  3.64D-07    CP:  1.00D+00  1.16D+00  9.12D-01  1.31D+00
 FoFJK:  IHMeth= 1 ICntrl=     0 DoSepK=T KAlg= 1 I1Cent= 0 FoldK=F
 E= -78.5869138132579     Delta-E=       -0.000000001644 Rises=F Damp=F
 DIIS: error= 8.87D-07 at cycle   5 NSaved=   5.
 NSaved= 5 IEnMin= 5 EnMin= -78.5869138132579     IErMin= 5 ErrMin= 8.87D-07
 ErrMax= 8.87D-07 EMaxC= 1.00D-01 BMatC= 8.18D-12 BMatP= 6.61D-10
 IDIUse=1 WtCom= 1.00D+00 WtEn= 0.00D+00
 Coeff-Com: -0.712D-03 0.108D-01 0.395D-02-0.218D+00 0.120D+01
 Coeff:     -0.712D-03 0.108D-01 0.395D-02-0.218D+00 0.120D+01
 Gap=     0.433 Goal=   None    Shift=    0.000
 RMSDP=2.39D-07 MaxDP=1.69D-06 DE=-1.64D-09 OVMax= 4.12D-06

 Cycle   6  Pass 1  IDiag  1:
 RMSU=  2.17D-08    CP:  1.00D+00  1.16D+00  9.24D-01  1.36D+00  1.38D+00
 FoFJK:  IHMeth= 1 ICntrl=     0 DoSepK=T KAlg= 1 I1Cent= 0 FoldK=F
 E= -78.5869138132889     Delta-E=       -0.000000000031 Rises=F Damp=F
 DIIS: error= 8.46D-08 at cycle   6 NSaved=   6.
 NSaved= 6 IEnMin= 6 EnMin= -78.5869138132889     IErMin= 6 ErrMin= 8.46D-08
 ErrMax= 8.46D-08 EMaxC= 1.00D-01 BMatC= 1.57D-13 BMatP= 8.18D-12
 IDIUse=1 WtCom= 1.00D+00 WtEn= 0.00D+00
 Coeff-Com: -0.194D-03 0.206D-02 0.205D-02-0.202D-01-0.438D-01 0.106D+01
 Coeff:     -0.194D-03 0.206D-02 0.205D-02-0.202D-01-0.438D-01 0.106D+01
 Gap=     0.433 Goal=   None    Shift=    0.000
 RMSDP=3.01D-08 MaxDP=2.19D-07 DE=-3.11D-11 OVMax= 4.62D-07

 Cycle   7  Pass 1  IDiag  1:
 RMSU=  3.58D-09    CP:  1.00D+00  1.16D+00  9.25D-01  1.37D+00  1.43D+00
                    CP:  1.33D+00
 FoFJK:  IHMeth= 1 ICntrl=     0 DoSepK=T KAlg= 1 I1Cent= 0 FoldK=F
 E= -78.5869138132895     Delta-E=       -0.000000000001 Rises=F Damp=F
 DIIS: error= 1.56D-08 at cycle   7 NSaved=   7.
 NSaved= 7 IEnMin= 7 EnMin= -78.5869138132895     IErMin= 7 ErrMin= 1.56D-08
 ErrMax= 1.56D-08 EMaxC= 1.00D-01 BMatC= 4.38D-15 BMatP= 1.57D-13
 IDIUse=1 WtCom= 1.00D+00 WtEn= 0.00D+00
 Coeff-Com:  0.417D-04-0.552D-03-0.302D-03 0.903D-02-0.399D-01-0.309D-01
 Coeff-Com:  0.106D+01
 Coeff:      0.417D-04-0.552D-03-0.302D-03 0.903D-02-0.399D-01-0.309D-01
 Coeff:      0.106D+01
 Gap=     0.433 Goal=   None    Shift=    0.000
 RMSDP=4.07D-09 MaxDP=3.37D-08 DE=-5.26D-13 OVMax= 6.67D-08

 SCF Done:  E(RwB97XD) =  -78.5869138133     A.U. after    7 cycles
             Convg  =    0.4068D-08             -V/T =  2.0054
 KE= 7.816446152073D+01 PE=-2.487821676328D+02 EE= 5.852347046401D+01
 Leave Link  502 at Wed May  3 10:14:54 2017, MaxMem=   33554432 cpu:      23.0
 (Enter /share/apps/gaussian09/g09/l701.exe)
 Compute integral first derivatives.
 ... and contract with generalized density number  0.
 R6Disp: Adding dispersion energy 1st derivatives to the gradient.
 Leave Link  701 at Wed May  3 10:14:54 2017, MaxMem=   33554432 cpu:       1.5
 (Enter /share/apps/gaussian09/g09/l702.exe)
 L702 exits ... SP integral derivatives will be done elsewhere.
 Leave Link  702 at Wed May  3 10:14:54 2017, MaxMem=   33554432 cpu:       0.4
 (Enter /share/apps/gaussian09/g09/l703.exe)
 Compute integral first derivatives, UseDBF=F ICtDFT=           0.
 Integral derivatives from FoFDir, PRISM(SPDF).
 Calling FoFJK, ICntrl=      2127 FMM=F ISym2X=0 I1Cent= 0 IOpClX= 0 NMat=1 NMatS=1 NMatT=0.
 FoFJK:  IHMeth= 1 ICntrl=  2127 DoSepK=T KAlg= 1 I1Cent= 0 FoldK=F
 FoFCou: FMM=F IPFlag=           0 FMFlag=      100000 FMFlg1=         800
         NFxFlg=           0 DoJE=F BraDBF=F KetDBF=F FulRan=T
         Omega=  0.000000  0.000000  1.000000  0.000000  0.000000 ICntrl=    2527 IOpCl=  0
         NMat0=    1 NMatS0=    1 NMatT0=    0 NMatD0=    1 NMtDS0=    0 NMtDT0=    0
         I1Cent=           0 NGrid=           0.
 Symmetry not used in FoFCou.
 Leave Link  703 at Wed May  3 10:14:54 2017, MaxMem=   33554432 cpu:       4.6
 (Enter /share/apps/gaussian09/g09/l716.exe)
 Dipole        = 7.83249021D-11 2.11830553D-11-1.16707536D-06
 -------------------------------------------------------------------
 Center     Atomic                   Forces (Hartrees/Bohr)
 Number     Number              X              Y              Z
 -------------------------------------------------------------------
      1        6          -0.000696143   -0.000000001   -0.000000116
      2        6           0.000696143    0.000000001   -0.000000116
      3        1           0.000117291    0.000299244    0.000000052
      4        1           0.000117249   -0.000299248    0.000000062
      5        1          -0.000117291   -0.000299244    0.000000048
      6        1          -0.000117249    0.000299248    0.000000069
 -------------------------------------------------------------------
 Cartesian Forces:  Max     0.000696143 RMS     0.000277131
 Leave Link  716 at Wed May  3 10:14:54 2017, MaxMem=   33554432 cpu:       0.3
 (Enter /share/apps/gaussian09/g09/l103.exe)

 GradGradGradGradGradGradGradGradGradGradGradGradGradGradGradGradGradGrad
 Berny optimization.
 Using GEDIIS/GDIIS optimizer.
 Internal  Forces:  Max     0.000461602 RMS     0.000220851
 Search for a local minimum.
 Step number   3 out of a maximum of   25
 All quantities printed in internal units (Hartrees-Bohrs-Radians)
 RMS Force = .22085D-03 SwitMx=.10000D-02 MixMth= 2
 Mixed Optimization -- En-DIIS/RFO-DIIS
 Swaping is turned off.
 Update second derivatives using D2CorX and points    1    2    3
 DE= -2.92D-05 DEPred=-2.38D-05 R= 1.23D+00
 SS=  1.41D+00  RLast= 1.63D-02 DXNew= 5.0454D-01 4.8839D-02
 Trust test= 1.23D+00 RLast= 1.63D-02 DXMaxT set to 3.00D-01
 The second derivative matrix:
                          R1        R2        R3        R4        R5
           R1           0.62593
           R2           0.01042   0.34530
           R3           0.01042   0.00655   0.34530
           R4           0.01042   0.00655   0.00655   0.34530
           R5           0.01042   0.00655   0.00655   0.00655   0.34530
           A1           0.00773  -0.00102  -0.00102  -0.00102  -0.00102
           A2           0.00774  -0.00102  -0.00101  -0.00102  -0.00101
           A3          -0.01547   0.00203   0.00203   0.00203   0.00203
           A4           0.00773  -0.00102  -0.00102  -0.00102  -0.00102
           A5           0.00774  -0.00102  -0.00101  -0.00102  -0.00101
           A6          -0.01547   0.00203   0.00203   0.00203   0.00203
           D1           0.00001   0.00000   0.00000   0.00000   0.00000
           D2           0.00000   0.00000   0.00000   0.00000   0.00000
           D3           0.00000   0.00000   0.00000   0.00000   0.00000
           D4          -0.00001   0.00000   0.00000   0.00000   0.00000
                          A1        A2        A3        A4        A5
           A1           0.15587
           A2          -0.00414   0.15586
           A3           0.00827   0.00827   0.14346
           A4          -0.00413  -0.00414   0.00827   0.15587
           A5          -0.00414  -0.00414   0.00827  -0.00414   0.15586
           A6           0.00827   0.00827  -0.01654   0.00827   0.00827
           D1           0.00000   0.00000   0.00000   0.00000   0.00000
           D2           0.00000   0.00000   0.00000   0.00000   0.00000
           D3           0.00000   0.00000   0.00000   0.00000   0.00000
           D4           0.00000   0.00000   0.00000   0.00000   0.00000
                          A6        D1        D2        D3        D4
           A6           0.14346
           D1           0.00000   0.03069
           D2           0.00000   0.00000   0.03069
           D3           0.00000   0.00000   0.00000   0.03069
           D4           0.00000   0.00000   0.00000   0.00000   0.03069
 ITU=  1  1  0
     Eigenvalues ---    0.03069   0.03069   0.03069   0.10873   0.16000
     Eigenvalues ---    0.16000   0.16000   0.33875   0.33875   0.33875
     Eigenvalues ---    0.36362   0.62891
 En-DIIS/RFO-DIIS IScMMF=        0 using points:     3    2
 RFO step:  Lambda=-1.65655481D-06.
 DidBck=F Rises=F RFO-DIIS coefs:    1.31060   -0.31060
 Iteration  1 RMS(Cart)=  0.00157789 RMS(Int)=  0.00000146
 Iteration  2 RMS(Cart)=  0.00000147 RMS(Int)=  0.00000000
 Iteration  3 RMS(Cart)=  0.00000000 RMS(Int)=  0.00000000
 Variable       Old X    -DE/DX   Delta X   Delta X   Delta X     New X
                                  (DIIS)     (GDIIS)  (Total)
    R1        2.49850   0.00046   0.00142  -0.00047   0.00095   2.49945
    R2        2.04820   0.00019  -0.00016   0.00060   0.00045   2.04865
    R3        2.04820   0.00019  -0.00016   0.00060   0.00045   2.04865
    R4        2.04820   0.00019  -0.00016   0.00060   0.00045   2.04865
    R5        2.04820   0.00019  -0.00016   0.00060   0.00045   2.04865
    A1        2.12460  -0.00018  -0.00140  -0.00024  -0.00164   2.12296
    A2        2.12460  -0.00018  -0.00140  -0.00024  -0.00164   2.12296
    A3        2.03399   0.00035   0.00280   0.00049   0.00328   2.03727
    A4        2.12460  -0.00018  -0.00140  -0.00024  -0.00164   2.12296
    A5        2.12460  -0.00018  -0.00140  -0.00024  -0.00164   2.12296
    A6        2.03399   0.00035   0.00280   0.00049   0.00328   2.03727
    D1       -3.14159   0.00000   0.00000  -0.00001   0.00000   3.14159
    D2        0.00000   0.00000   0.00000   0.00000   0.00000   0.00000
    D3        0.00000   0.00000   0.00000   0.00000   0.00000   0.00000
    D4        3.14159   0.00000   0.00000   0.00001   0.00000  -3.14159
         Item               Value     Threshold  Converged?
 Maximum Force            0.000462     0.000450     NO 
 RMS     Force            0.000221     0.000300     YES
 Maximum Displacement     0.002150     0.001800     NO 
 RMS     Displacement     0.001578     0.001200     NO 
 Predicted change in Energy=-2.119814D-06
 GradGradGradGradGradGradGradGradGradGradGradGradGradGradGradGradGradGrad

 Leave Link  103 at Wed May  3 10:14:54 2017, MaxMem=   33554432 cpu:       0.0
 (Enter /share/apps/gaussian09/g09/l202.exe)
                          Input orientation:                          
 ---------------------------------------------------------------------
 Center     Atomic      Atomic             Coordinates (Angstroms)
 Number     Number       Type             X           Y           Z
 ---------------------------------------------------------------------
      1          6           0        0.240325    0.433425   -0.000007
      2          6           0        1.562978    0.433410    0.000000
      3          1           0       -0.328305    1.356423    0.000008
      4          1           0       -0.328325   -0.489562   -0.000025
      5          1           0        2.131608   -0.489589   -0.000013
      6          1           0        2.131628    1.356396    0.000021
 ---------------------------------------------------------------------
                    Distance matrix (angstroms):
                    1          2          3          4          5
     1  C    0.000000
     2  C    1.322653   0.000000
     3  H    1.084097   2.104496   0.000000
     4  H    1.084097   2.104496   1.845985   0.000000
     5  H    2.104496   1.084097   3.075538   2.459933   0.000000
     6  H    2.104496   1.084097   2.459933   3.075537   1.845985
                    6
     6  H    0.000000
 Symmetry turned off by external request.
 Stoichiometry    C2H4
 Framework group  C1[X(C2H4)]
 Deg. of freedom    12
 Full point group                 C1      NOp   1
 Rotational constants (GHZ):    147.1552020     30.4535448     25.2318516
 Leave Link  202 at Wed May  3 10:14:54 2017, MaxMem=   33554432 cpu:       0.0
 (Enter /share/apps/gaussian09/g09/l301.exe)
 Standard basis: TZVP (5D, 7F)
 Ernie: Thresh=  0.10000D-02 Tol=  0.10000D-05 Strict=F.
 Integral buffers will be    131072 words long.
 Raffenetti 2 integral format.
 Two-electron integral symmetry is turned off.
    62 basis functions,   102 primitive gaussians,    64 cartesian basis functions
     8 alpha electrons        8 beta electrons
       nuclear repulsion energy        33.5007153829 Hartrees.
 IExCor= 4639 DFT=T Ex+Corr=wB97XD ExCW=0 ScaHFX=  1.000000
 ScaDFX=  1.000000  1.000000  1.000000  1.000000 ScalE2=  1.000000  1.000000
 IRadAn=      0 IRanWt=     -1 IRanGd=            0 ICorTp=0
  HFx wShort=  0.000000 wLong=  0.200000 cFull=  0.222036 cShort=  0.000000 cLong=  0.777964
  DFx wShort=  0.000000 wLong=  0.200000 cFull=  0.000000 cShort=  0.000000 cLong=  1.000000
 NAtoms=    6 NActive=    6 NUniq=    6 SFac= 1.00D+00 NAtFMM=   60 NAOKFM=F Big=F
 R6Disp: Dispersion energy =        -0.0008309132 Hartrees.
 Nuclear repulsion after empirical dispersion term =       33.4998844697 Hartrees.
 Leave Link  301 at Wed May  3 10:14:55 2017, MaxMem=   33554432 cpu:       0.6
 (Enter /share/apps/gaussian09/g09/l302.exe)
 NPDir=0 NMtPBC=     1 NCelOv=     1 NCel=       1 NClECP=     1 NCelD=      1
         NCelK=      1 NCelE2=     1 NClLst=     1 CellRange=     0.0.
 One-electron integrals computed using PRISM.
 NBasis=    62 RedAO= T  NBF=    62
 NBsUse=    62 1.00D-06 NBFU=    62
 Precomputing XC quadrature grid using
 IXCGrd= 2 IRadAn=           0 IRanWt=          -1 IRanGd=           0 AccXCQ= 0.00D+00.
 NRdTot=     374 NPtTot=       47012 NUsed=       49721 NTot=       49753
 NSgBfM=    64    64    64    64    64 NAtAll=     6     6.
 Leave Link  302 at Wed May  3 10:14:55 2017, MaxMem=   33554432 cpu:       1.6
 (Enter /share/apps/gaussian09/g09/l303.exe)
 DipDrv:  MaxL=1.
 Leave Link  303 at Wed May  3 10:14:55 2017, MaxMem=   33554432 cpu:       0.4
 (Enter /share/apps/gaussian09/g09/l401.exe)
 Initial guess read from the read-write file.
 B after Tr=     0.000000    0.000000    0.000000
         Rot=    1.000000    0.000000    0.000000    0.000000 Ang=   0.00 deg.
 Guess basis will be translated and rotated to current coordinates.
 Leave Link  401 at Wed May  3 10:14:55 2017, MaxMem=   33554432 cpu:       1.1
 (Enter /share/apps/gaussian09/g09/l502.exe)
 Closed shell SCF:
 Requested convergence on RMS density matrix=1.00D-08 within 128 cycles.
 Requested convergence on MAX density matrix=1.00D-06.
 Requested convergence on             energy=1.00D-06.
 No special actions if energy rises.
 Using DIIS extrapolation, IDIIS=  1040.
 Two-electron integral symmetry not used.
        49654 words used for storage of precomputed grid.
 IEnd=       80996 IEndB=       80996 NGot=    33554432 MDV=    33494237
 LenX=    33494237 LenY=    33489700
 Fock matrices will be formed incrementally for  20 cycles.

 Cycle   1  Pass 1  IDiag  1:
 FoFJK:  IHMeth= 1 ICntrl=     0 DoSepK=T KAlg= 1 I1Cent= 0 FoldK=F
 FoFCou: FMM=F IPFlag=           0 FMFlag=      100000 FMFlg1=           0
         NFxFlg=           0 DoJE=T BraDBF=F KetDBF=F FulRan=T
         Omega=  0.000000  0.000000  1.000000  0.000000  0.000000 ICntrl=     500 IOpCl=  0
         NMat0=    1 NMatS0=    1 NMatT0=    0 NMatD0=    1 NMtDS0=    0 NMtDT0=    0
         I1Cent=           0 NGrid=           0.
 Symmetry not used in FoFCou.
 E= -78.5869154498378    
 DIIS: error= 1.07D-04 at cycle   1 NSaved=   1.
 NSaved= 1 IEnMin= 1 EnMin= -78.5869154498378     IErMin= 1 ErrMin= 1.07D-04
 ErrMax= 1.07D-04 EMaxC= 1.00D-01 BMatC= 4.50D-07 BMatP= 4.50D-07
 IDIUse=3 WtCom= 9.99D-01 WtEn= 1.07D-03
 Coeff-Com:  0.100D+01
 Coeff-En:   0.100D+01
 Coeff:      0.100D+01
 Gap=     0.433 Goal=   None    Shift=    0.000
 RMSDP=8.93D-06 MaxDP=8.94D-05              OVMax= 2.40D-04

 Cycle   2  Pass 1  IDiag  1:
 RMSU=  6.30D-06    CP:  1.00D+00
 FoFJK:  IHMeth= 1 ICntrl=     0 DoSepK=T KAlg= 1 I1Cent= 0 FoldK=F
 E= -78.5869158957767     Delta-E=       -0.000000445939 Rises=F Damp=F
 DIIS: error= 3.23D-05 at cycle   2 NSaved=   2.
 NSaved= 2 IEnMin= 2 EnMin= -78.5869158957767     IErMin= 2 ErrMin= 3.23D-05
 ErrMax= 3.23D-05 EMaxC= 1.00D-01 BMatC= 2.02D-08 BMatP= 4.50D-07
 IDIUse=1 WtCom= 1.00D+00 WtEn= 0.00D+00
 Coeff-Com: -0.457D-02 0.100D+01
 Coeff:     -0.457D-02 0.100D+01
 Gap=     0.433 Goal=   None    Shift=    0.000
 RMSDP=2.49D-06 MaxDP=3.05D-05 DE=-4.46D-07 OVMax= 8.47D-05

 Cycle   3  Pass 1  IDiag  1:
 RMSU=  1.66D-06    CP:  1.00D+00  1.08D+00
 FoFJK:  IHMeth= 1 ICntrl=     0 DoSepK=T KAlg= 1 I1Cent= 0 FoldK=F
 E= -78.5869159145082     Delta-E=       -0.000000018731 Rises=F Damp=F
 DIIS: error= 1.45D-05 at cycle   3 NSaved=   3.
 NSaved= 3 IEnMin= 3 EnMin= -78.5869159145082     IErMin= 3 ErrMin= 1.45D-05
 ErrMax= 1.45D-05 EMaxC= 1.00D-01 BMatC= 7.14D-09 BMatP= 2.02D-08
 IDIUse=1 WtCom= 1.00D+00 WtEn= 0.00D+00
 Coeff-Com: -0.444D-01 0.373D+00 0.671D+00
 Coeff:     -0.444D-01 0.373D+00 0.671D+00
 Gap=     0.433 Goal=   None    Shift=    0.000
 RMSDP=8.10D-07 MaxDP=1.02D-05 DE=-1.87D-08 OVMax= 2.75D-05

 Cycle   4  Pass 1  IDiag  1:
 RMSU=  3.82D-07    CP:  1.00D+00  1.12D+00  8.03D-01
 FoFJK:  IHMeth= 1 ICntrl=     0 DoSepK=T KAlg= 1 I1Cent= 0 FoldK=F
 E= -78.5869159217299     Delta-E=       -0.000000007222 Rises=F Damp=F
 DIIS: error= 1.68D-06 at cycle   4 NSaved=   4.
 NSaved= 4 IEnMin= 4 EnMin= -78.5869159217299     IErMin= 4 ErrMin= 1.68D-06
 ErrMax= 1.68D-06 EMaxC= 1.00D-01 BMatC= 5.33D-11 BMatP= 7.14D-09
 IDIUse=1 WtCom= 1.00D+00 WtEn= 0.00D+00
 Coeff-Com:  0.166D-02-0.520D-01-0.261D-01 0.108D+01
 Coeff:      0.166D-02-0.520D-01-0.261D-01 0.108D+01
 Gap=     0.433 Goal=   None    Shift=    0.000
 RMSDP=2.53D-07 MaxDP=1.67D-06 DE=-7.22D-09 OVMax= 5.64D-06

 Cycle   5  Pass 1  IDiag  1:
 RMSU=  9.44D-08    CP:  1.00D+00  1.12D+00  8.66D-01  1.27D+00
 FoFJK:  IHMeth= 1 ICntrl=     0 DoSepK=T KAlg= 1 I1Cent= 0 FoldK=F
 E= -78.5869159218483     Delta-E=       -0.000000000118 Rises=F Damp=F
 DIIS: error= 2.34D-07 at cycle   5 NSaved=   5.
 NSaved= 5 IEnMin= 5 EnMin= -78.5869159218483     IErMin= 5 ErrMin= 2.34D-07
 ErrMax= 2.34D-07 EMaxC= 1.00D-01 BMatC= 1.59D-12 BMatP= 5.33D-11
 IDIUse=1 WtCom= 1.00D+00 WtEn= 0.00D+00
 Coeff-Com:  0.170D-02-0.155D-01-0.224D-01 0.433D-01 0.993D+00
 Coeff:      0.170D-02-0.155D-01-0.224D-01 0.433D-01 0.993D+00
 Gap=     0.433 Goal=   None    Shift=    0.000
 RMSDP=6.63D-08 MaxDP=4.44D-07 DE=-1.18D-10 OVMax= 9.74D-07

 Cycle   6  Pass 1  IDiag  1:
 RMSU=  1.56D-08    CP:  1.00D+00  1.12D+00  8.77D-01  1.35D+00  1.31D+00
 FoFJK:  IHMeth= 1 ICntrl=     0 DoSepK=T KAlg= 1 I1Cent= 0 FoldK=F
 E= -78.5869159218526     Delta-E=       -0.000000000004 Rises=F Damp=F
 DIIS: error= 5.01D-08 at cycle   6 NSaved=   6.
 NSaved= 6 IEnMin= 6 EnMin= -78.5869159218526     IErMin= 6 ErrMin= 5.01D-08
 ErrMax= 5.01D-08 EMaxC= 1.00D-01 BMatC= 4.52D-14 BMatP= 1.59D-12
 IDIUse=1 WtCom= 1.00D+00 WtEn= 0.00D+00
 Coeff-Com: -0.261D-03 0.336D-02 0.432D-02-0.348D-01-0.156D+00 0.118D+01
 Coeff:     -0.261D-03 0.336D-02 0.432D-02-0.348D-01-0.156D+00 0.118D+01
 Gap=     0.433 Goal=   None    Shift=    0.000
 RMSDP=1.91D-08 MaxDP=1.32D-07 DE=-4.29D-12 OVMax= 2.43D-07

 Cycle   7  Pass 1  IDiag  1:
[...]
 Rotational      0.361377D+04          3.557960          8.192507
 
                                                         Title Card Required
                                                             IR Spectrum
 
     3 3 33                                                       1        1  1     1      1 1                                       
     2 2 11                                                       7        4  3     2      0 09    8                                 
     5 3 65                                                       1        7  9     4      7 08    4                                 
     8 2 91                                                       7        9  4     9      0 19    7                                 
 
     X    X                                                                X                  X    X                                 
     X    X                                                                X                  X                                      
     X    X                                                                                   X                                      
     X                                                                                        X                                      
                                                                                              X                                      
                                                                                              X                                      
                                                                                              X                                      
                                                                                              X                                      
                                                                                              X                                      
                                                                                              X                                      
                                                                                              X                                      
                                                                                              X                                      
                                                                                              X                                      
                                                                                              X                                      
                                                                                              X                                      
                                                                                              X                                      
                                                                                              X                                      
                                                                                              X                                      
                                                                                              X                                      
                                                                                              X                                      
 
 -------------------------------------------------------------------
 Center     Atomic                   Forces (Hartrees/Bohr)
 Number     Number              X              Y              Z
 -------------------------------------------------------------------
      1        6          -0.000038095   -0.000000077    0.000000127
      2        6           0.000038095    0.000000077    0.000000115
      3        1          -0.000002620   -0.000004069   -0.000000065
      4        1          -0.000002631    0.000004121   -0.000000060
      5        1           0.000002620    0.000004069   -0.000000057
      6        1           0.000002631   -0.000004121   -0.000000061
 -------------------------------------------------------------------
 Cartesian Forces:  Max     0.000038095 RMS     0.000012904
 Force constants in Cartesian coordinates: 
                1             2             3             4             5 
      1  0.885820D+00
      2 -0.312232D-05  0.645305D+00
      3  0.362053D-05  0.974423D-05  0.115513D+00
      4 -0.597103D+00  0.550874D-05 -0.273309D-05  0.885820D+00
      5  0.550885D-05 -0.114806D+00 -0.116489D-05 -0.312239D-05  0.645305D+00
      6 -0.282262D-05 -0.116456D-05 -0.516560D-01  0.432201D-05  0.974065D-05
      7 -0.131035D+00  0.121267D+00  0.204631D-05 -0.133205D-01  0.303987D-01
      8  0.126483D+00 -0.269351D+00 -0.379631D-05 -0.267683D-02  0.409759D-02
      9  0.217082D-05 -0.387629D-05 -0.384532D-01  0.000000D+00  0.000000D+00
     10 -0.131040D+00 -0.121270D+00 -0.271234D-05 -0.133212D-01 -0.303983D-01
     11 -0.126486D+00 -0.269344D+00 -0.469361D-05  0.267720D-02  0.409817D-02
     12 -0.278442D-05 -0.461992D-05 -0.384534D-01  0.000000D+00  0.000000D+00
     13 -0.133205D-01  0.303987D-01  0.000000D+00 -0.131035D+00  0.121267D+00
     14 -0.267683D-02  0.409759D-02  0.000000D+00  0.126483D+00 -0.269351D+00
     15  0.000000D+00  0.000000D+00  0.652507D-02  0.179253D-05 -0.337866D-05
     16 -0.133212D-01 -0.303983D-01  0.000000D+00 -0.131040D+00 -0.121270D+00
     17  0.267720D-02  0.409818D-02  0.000000D+00 -0.126486D+00 -0.269344D+00
     18  0.000000D+00  0.000000D+00  0.652509D-02 -0.315984D-05 -0.511370D-05
                6             7             8             9            10 
      6  0.115513D+00
      7  0.000000D+00  0.138341D+00
      8  0.000000D+00 -0.136993D+00  0.277901D+00
      9  0.652507D-02 -0.223100D-05  0.417512D-05  0.249710D-01
     10  0.000000D+00  0.986787D-02  0.137507D-01  0.000000D+00  0.138346D+00
     11  0.000000D+00 -0.137512D-01 -0.154709D-01  0.000000D+00  0.136996D+00
     12  0.652509D-02  0.000000D+00  0.000000D+00  0.308500D-02  0.310174D-05
     13  0.171886D-05 -0.490581D-02 -0.742487D-03  0.000000D+00  0.105307D-02
     14 -0.339703D-05 -0.742487D-03  0.151784D-02  0.000000D+00  0.178895D-03
     15 -0.384532D-01  0.000000D+00  0.000000D+00  0.128374D-01  0.000000D+00
     16 -0.303758D-05  0.105307D-02  0.178894D-03  0.000000D+00 -0.490578D-02
     17 -0.508943D-05 -0.178884D-03  0.130536D-02  0.000000D+00  0.742626D-03
     18 -0.384534D-01  0.000000D+00  0.000000D+00 -0.896526D-02  0.000000D+00
               11            12            13            14            15 
     11  0.277894D+00
     12  0.512802D-05  0.249712D-01
     13 -0.178884D-03  0.000000D+00  0.138341D+00
     14  0.130536D-02  0.000000D+00 -0.136993D+00  0.277901D+00
     15  0.000000D+00 -0.896526D-02 -0.189631D-05  0.372632D-05  0.249710D-01
     16  0.742626D-03  0.000000D+00  0.986787D-02  0.137507D-01  0.000000D+00
     17  0.151781D-02  0.000000D+00 -0.137512D-01 -0.154709D-01  0.000000D+00
     18  0.000000D+00  0.128374D-01  0.000000D+00  0.000000D+00  0.308500D-02
               16            17            18 
     16  0.138346D+00
     17  0.136996D+00  0.277894D+00
     18  0.343420D-05  0.557297D-05  0.249712D-01
 Force constants in internal coordinates: 
                1             2             3             4             5 
      1  0.658091D+00
      2  0.624892D-02  0.361831D+00
      3  0.624894D-02  0.167751D-02  0.361829D+00
      4  0.624892D-02 -0.443665D-03  0.846208D-03  0.361831D+00
      5  0.624894D-02  0.846208D-03 -0.443653D-03  0.167751D-02  0.361829D+00
      6  0.111455D-01  0.505661D-02 -0.114749D-01  0.422347D-02 -0.315683D-02
      7  0.111455D-01 -0.114748D-01  0.505670D-02 -0.315684D-02  0.422343D-02
      8 -0.222910D-01  0.641820D-02  0.641817D-02 -0.106663D-02 -0.106660D-02
      9  0.111455D-01  0.422347D-02 -0.315683D-02  0.505661D-02 -0.114749D-01
     10  0.111455D-01 -0.315684D-02  0.422343D-02 -0.114748D-01  0.505670D-02
     11 -0.222910D-01 -0.106663D-02 -0.106660D-02  0.641820D-02  0.641817D-02
     12  0.000000D+00  0.000000D+00  0.000000D+00  0.000000D+00  0.000000D+00
     13  0.000000D+00  0.000000D+00  0.000000D+00  0.000000D+00  0.000000D+00
     14  0.000000D+00  0.000000D+00  0.000000D+00  0.000000D+00  0.000000D+00
     15  0.000000D+00  0.000000D+00  0.000000D+00  0.000000D+00  0.000000D+00
                6             7             8             9            10 
      6  0.824005D-01
      7 -0.459937D-01  0.824002D-01
      8 -0.364069D-01 -0.364065D-01  0.728133D-01
      9  0.971409D-02 -0.820433D-02 -0.150976D-02  0.824005D-01
     10 -0.820433D-02  0.971425D-02 -0.150991D-02 -0.459937D-01  0.824002D-01
     11 -0.150976D-02 -0.150991D-02  0.301967D-02 -0.364069D-01 -0.364065D-01
     12  0.000000D+00  0.000000D+00  0.000000D+00  0.000000D+00  0.000000D+00
     13  0.000000D+00  0.000000D+00  0.000000D+00  0.000000D+00  0.000000D+00
     14  0.000000D+00  0.000000D+00  0.000000D+00  0.000000D+00  0.000000D+00
     15  0.000000D+00  0.000000D+00  0.000000D+00  0.000000D+00  0.000000D+00
               11            12            13            14            15 
     11  0.728133D-01
     12  0.000000D+00  0.325905D-01
     13  0.000000D+00  0.830651D-02  0.266907D-01
     14  0.000000D+00  0.830651D-02 -0.100776D-01  0.266907D-01
     15  0.000000D+00 -0.159775D-01  0.830659D-02  0.830659D-02  0.325907D-01
 Leave Link  716 at Wed May  3 10:15:10 2017, MaxMem=   33554432 cpu:       0.4
 (Enter /share/apps/gaussian09/g09/l103.exe)

 GradGradGradGradGradGradGradGradGradGradGradGradGradGradGradGradGradGrad
 Berny optimization.
 Red2BG is reusing G-inverse.
 Internal  Forces:  Max     0.000043346 RMS     0.000011559
 Search for a local minimum.
 Step number   1 out of a maximum of    2
 All quantities printed in internal units (Hartrees-Bohrs-Radians)
 Second derivative matrix not updated -- analytic derivatives used.
 The second derivative matrix:
                          R1        R2        R3        R4        R5
           R1           0.65809
           R2           0.00625   0.36183
           R3           0.00625   0.00168   0.36183
           R4           0.00625  -0.00044   0.00085   0.36183
           R5           0.00625   0.00085  -0.00044   0.00168   0.36183
           A1           0.01115   0.00506  -0.01147   0.00422  -0.00316
           A2           0.01115  -0.01147   0.00506  -0.00316   0.00422
           A3          -0.02229   0.00642   0.00642  -0.00107  -0.00107
           A4           0.01115   0.00422  -0.00316   0.00506  -0.01147
           A5           0.01115  -0.00316   0.00422  -0.01147   0.00506
           A6          -0.02229  -0.00107  -0.00107   0.00642   0.00642
           D1           0.00000   0.00000   0.00000   0.00000   0.00000
           D2           0.00000   0.00000   0.00000   0.00000   0.00000
           D3           0.00000   0.00000   0.00000   0.00000   0.00000
           D4           0.00000   0.00000   0.00000   0.00000   0.00000
                          A1        A2        A3        A4        A5
           A1           0.08240
           A2          -0.04599   0.08240
           A3          -0.03641  -0.03641   0.07281
           A4           0.00971  -0.00820  -0.00151   0.08240
           A5          -0.00820   0.00971  -0.00151  -0.04599   0.08240
           A6          -0.00151  -0.00151   0.00302  -0.03641  -0.03641
           D1           0.00000   0.00000   0.00000   0.00000   0.00000
           D2           0.00000   0.00000   0.00000   0.00000   0.00000
           D3           0.00000   0.00000   0.00000   0.00000   0.00000
           D4           0.00000   0.00000   0.00000   0.00000   0.00000
                          A6        D1        D2        D3        D4
           A6           0.07281
           D1           0.00000   0.03259
           D2           0.00000   0.00831   0.02669
           D3           0.00000   0.00831  -0.01008   0.02669
           D4           0.00000  -0.01598   0.00831   0.00831   0.03259
 ITU=  0
     Eigenvalues ---    0.03323   0.03677   0.04857   0.10404   0.11014
     Eigenvalues ---    0.11062   0.14366   0.36152   0.36178   0.36375
     Eigenvalues ---    0.36385   0.66129
 Angle between quadratic step and forces=  34.51 degrees.
 Linear search not attempted -- first point.
 Iteration  1 RMS(Cart)=  0.00003694 RMS(Int)=  0.00000000
 Iteration  2 RMS(Cart)=  0.00000000 RMS(Int)=  0.00000000
 Variable       Old X    -DE/DX   Delta X   Delta X   Delta X     New X
                                 (Linear)    (Quad)   (Total)
    R1        2.49945   0.00004   0.00000   0.00006   0.00006   2.49951
    R2        2.04865   0.00000   0.00000  -0.00001  -0.00001   2.04864
    R3        2.04865   0.00000   0.00000  -0.00001  -0.00001   2.04864
    R4        2.04865   0.00000   0.00000  -0.00001  -0.00001   2.04864
    R5        2.04865   0.00000   0.00000  -0.00001  -0.00001   2.04864
    A1        2.12296   0.00000   0.00000   0.00002   0.00002   2.12298
    A2        2.12296   0.00000   0.00000   0.00002   0.00002   2.12298
    A3        2.03727  -0.00001   0.00000  -0.00004  -0.00004   2.03723
    A4        2.12296   0.00000   0.00000   0.00002   0.00002   2.12298
    A5        2.12296   0.00000   0.00000   0.00002   0.00002   2.12298
    A6        2.03727  -0.00001   0.00000  -0.00004  -0.00004   2.03723
    D1        3.14159   0.00000   0.00000   0.00000   0.00000   3.14159
    D2        0.00000   0.00000   0.00000   0.00000   0.00000   0.00000
    D3        0.00000   0.00000   0.00000   0.00000   0.00000   0.00000
    D4       -3.14159   0.00000   0.00000   0.00000   0.00000  -3.14159
         Item               Value     Threshold  Converged?
 Maximum Force            0.000043     0.000450     YES
 RMS     Force            0.000012     0.000300     YES
 Maximum Displacement     0.000063     0.001800     YES
 RMS     Displacement     0.000037     0.001200     YES
 Predicted change in Energy=-1.728435D-09
 Optimization completed.
    -- Stationary point found.
                           ----------------------------
                           !   Optimized Parameters   !
                           ! (Angstroms and Degrees)  !
 --------------------------                            --------------------------
 ! Name  Definition              Value          Derivative Info.                !
 --------------------------------------------------------------------------------
 ! R1    R(1,2)                  1.3227         -DE/DX =    0.0                 !
 ! R2    R(1,3)                  1.0841         -DE/DX =    0.0                 !
 ! R3    R(1,4)                  1.0841         -DE/DX =    0.0                 !
 ! R4    R(2,5)                  1.0841         -DE/DX =    0.0                 !
 ! R5    R(2,6)                  1.0841         -DE/DX =    0.0                 !
 ! A1    A(2,1,3)              121.6365         -DE/DX =    0.0                 !
 ! A2    A(2,1,4)              121.6365         -DE/DX =    0.0                 !
 ! A3    A(3,1,4)              116.727          -DE/DX =    0.0                 !
 ! A4    A(1,2,5)              121.6365         -DE/DX =    0.0                 !
 ! A5    A(1,2,6)              121.6365         -DE/DX =    0.0                 !
 ! A6    A(5,2,6)              116.727          -DE/DX =    0.0                 !
 ! D1    D(3,1,2,5)            179.9999         -DE/DX =    0.0                 !
 ! D2    D(3,1,2,6)              0.0            -DE/DX =    0.0                 !
 ! D3    D(4,1,2,5)              0.0            -DE/DX =    0.0                 !
 ! D4    D(4,1,2,6)           -179.9999         -DE/DX =    0.0                 !
 --------------------------------------------------------------------------------
 GradGradGradGradGradGradGradGradGradGradGradGradGradGradGradGradGradGrad

 Leave Link  103 at Wed May  3 10:15:10 2017, MaxMem=   33554432 cpu:       0.0
 (Enter /share/apps/gaussian09/g09/l9999.exe)
 1\1\GINC-COMPUTE-0-2\Freq\RwB97XD\TZVP\C2H4\CRAIGV\03-May-2017\0\\#P G
 eom=AllCheck Guess=TCheck SCRF=Check GenChk RwB97XD/TZVP Freq\\Title C
 ard Required\\0,1\C,0.2403251958,0.4334245669,-0.0000065323\C,1.562977
 7242,0.4334096531,0.0000001943\H,-0.3283048377,1.3564233844,0.00000835
 45\H,-0.3283251831,-0.4895618237,-0.0000251161\H,2.1316077577,-0.48958
 91644,-0.0000126774\H,2.1316281031,1.3563960437,0.000020777\\Version=E
 M64L-G09RevC.01\HF=-78.5869159\RMSD=1.805e-10\RMSF=1.290e-05\ZeroPoint
 =0.0513933\Thermal=0.0554804\Dipole=0.,0.,0.0000012\DipoleDeriv=-0.024
 6038,0.0000016,0.0000011,0.0000015,0.1053319,0.0000077,0.0000001,0.000
 0079,-0.3219348,-0.0246038,0.0000016,0.0000018,0.0000015,0.1053319,0.0
 000077,0.0000028,0.0000079,-0.3219348,0.0123033,0.050373,0.0000002,0.0
 826033,-0.0526675,-0.0000034,0.0000012,-0.0000039,0.1609674,0.0123004,
 -0.0503746,-0.0000015,-0.0826048,-0.0526644,-0.0000043,-0.0000017,-0.0
 00004,0.1609674,0.0123033,0.050373,0.,0.0826033,-0.0526675,-0.0000035,
 0.0000003,-0.0000035,0.1609674,0.0123004,-0.0503746,-0.0000017,-0.0826
 048,-0.0526644,-0.0000043,-0.0000027,-0.0000045,0.1609674\Polar=34.632
 2368,-0.0001451,21.5111605,0.0000955,0.0001034,15.8211562\PG=C01 [X(C2
 H4)]\NImag=0\\0.88581986,-0.00000312,0.64530458,0.00000362,0.00000974,
 0.11551253,-0.59710266,0.00000551,-0.00000273,0.88581986,0.00000551,-0
 .11480572,-0.00000116,-0.00000312,0.64530458,-0.00000282,-0.00000116,-
 0.05165601,0.00000432,0.00000974,0.11551253,-0.13103529,0.12126728,0.0
 0000205,-0.01332052,0.03039867,0.00000046,0.13834068,0.12648311,-0.269
 35054,-0.00000380,-0.00267683,0.00409759,-0.00000006,-0.13699335,0.277
 90067,0.00000217,-0.00000388,-0.03845323,-0.00000016,0.00000010,0.0065
 2507,-0.00000223,0.00000418,0.02497097,-0.13104024,-0.12127007,-0.0000
 0271,-0.01332115,-0.03039827,-0.00000064,0.00986787,0.01375066,0.00000
 027,0.13834623,-0.12648587,-0.26934408,-0.00000469,0.00267720,0.004098
 17,-0.00000003,-0.01375123,-0.01547092,-0.00000039,0.13699616,0.277893
 66,-0.00000278,-0.00000462,-0.03845345,-0.00000006,-0.00000019,0.00652
 509,-0.00000022,-0.00000029,0.00308500,0.00000310,0.00000513,0.0249711
 7,-0.01332052,0.03039867,0.00000044,-0.13103529,0.12126728,0.00000172,
 -0.00490581,-0.00074249,-0.00000011,0.00105307,-0.00017888,0.00000005,
 0.13834068,-0.00267683,0.00409759,-0.00000005,0.12648311,-0.26935054,-
 0.00000340,-0.00074249,0.00151784,-0.00000020,0.00017889,0.00130536,0.
 00000018,-0.13699335,0.27790067,-0.00000014,0.00000012,0.00652507,0.00
 000179,-0.00000338,-0.03845323,-0.00000009,-0.00000022,0.01283744,0.00
 000005,0.00000018,-0.00896526,-0.00000190,0.00000373,0.02497097,-0.013
 32115,-0.03039827,-0.00000066,-0.13104024,-0.12127007,-0.00000304,0.00
 105307,0.00017889,0.00000006,-0.00490578,0.00074263,-0.00000009,0.0098
 6787,0.01375066,0.00000029,0.13834623,0.00267720,0.00409818,-0.0000000
 3,-0.12648587,-0.26934408,-0.00000509,-0.00017888,0.00130536,0.0000001
 9,0.00074263,0.00151781,-0.00000021,-0.01375123,-0.01547092,-0.0000004
 3,0.13699616,0.27789366,-0.00000004,-0.00000021,0.00652509,-0.00000316
 ,-0.00000511,-0.03845345,0.00000004,0.00000019,-0.00896526,-0.00000007
 ,-0.00000019,0.01283744,-0.00000021,-0.00000026,0.00308500,0.00000343,
 0.00000557,0.02497117\\0.00003810,0.00000008,-0.00000013,-0.00003810,-
 0.00000008,-0.00000012,0.00000262,0.00000407,0.00000007,0.00000263,-0.
 00000412,0.00000006,-0.00000262,-0.00000407,0.00000006,-0.00000263,0.0
 0000412,0.00000006\\\@


 There are more things in heaven and earth, Horatio,
 than are dreamt of in your philosophy.
                   -- Hamlet, Act I, Scene 5
 The chemist is a guest at the physicist's table and
 frequently dines well.
                   -- Richard Bersohn
 Job cpu time:  0 days  0 hours  1 minutes 28.0 seconds.
 File lengths (MBytes):  RWF=      6 Int=      0 D2E=      0 Chk=      1 Scr=      1
 Normal termination of Gaussian 09 at Wed May  3 10:15:10 2017.
