 Entering Gaussian System, Link 0=g09
 Input=C3H8opt.gjf
 Output=C3H8opt.log
 Initial command:
 /share/apps/gaussian09/g09/l1.exe /state/partition1/96374.karakoram.cnsi.ucsb.edu/Gau-9816.inp -scrdir=/state/partition1/96374.karakoram.cnsi.ucsb.edu/
 Entering Link 1 = /share/apps/gaussian09/g09/l1.exe PID=      9817.
  
 Copyright (c) 1988,1990,1992,1993,1995,1998,2003,2009,2011,
            Gaussian, Inc.  All Rights Reserved.
  
 This is part of the Gaussian(R) 09 program.  It is based on
 the Gaussian(R) 03 system (copyright 2003, Gaussian, Inc.),
 the Gaussian(R) 98 system (copyright 1998, Gaussian, Inc.),
 the Gaussian(R) 94 system (copyright 1995, Gaussian, Inc.),
 the Gaussian 92(TM) system (copyright 1992, Gaussian, Inc.),
 the Gaussian 90(TM) system (copyright 1990, Gaussian, Inc.),
 the Gaussian 88(TM) system (copyright 1988, Gaussian, Inc.),
 the Gaussian 86(TM) system (copyright 1986, Carnegie Mellon
 University), and the Gaussian 82(TM) system (copyright 1983,
 Carnegie Mellon University). Gaussian is a federally registered
 trademark of Gaussian, Inc.
  
 This software contains proprietary and confidential information,
 including trade secrets, belonging to Gaussian, Inc.
  
 This software is provided under written license and may be
 used, copied, transmitted, or stored only in accord with that
 written license.
  
 The following legend is applicable only to US Government
 contracts under FAR:
  
                    RESTRICTED RIGHTS LEGEND
  
 Use, reproduction and disclosure by the US Government is
 subject to restrictions as set forth in subparagraphs (a)
 and (c) of the Commercial Computer Software - Restricted
 Rights clause in FAR 52.227-19.
  
 Gaussian, Inc.
 340 Quinnipiac St., Bldg. 40, Wallingford CT 06492
  
  
 ---------------------------------------------------------------
 Warning -- This program may not be used in any manner that
 competes with the business of Gaussian, Inc. or will provide
 assistance to any competitor of Gaussian, Inc.  The licensee
 of this program is prohibited from giving any competitor of
 Gaussian, Inc. access to this program.  By using this program,
 the user acknowledges that Gaussian, Inc. is engaged in the
 business of creating and licensing software in the field of
 computational chemistry and represents and warrants to the
 licensee that it is not a competitor of Gaussian, Inc. and that
 it will not use this program in any manner prohibited above.
 ---------------------------------------------------------------
  

 Cite this work as:
 Gaussian 09, Revision C.01,
 M. J. Frisch, G. W. Trucks, H. B. Schlegel, G. E. Scuseria, 
 M. A. Robb, J. R. Cheeseman, G. Scalmani, V. Barone, B. Mennucci, 
 G. A. Petersson, H. Nakatsuji, M. Caricato, X. Li, H. P. Hratchian, 
 A. F. Izmaylov, J. Bloino, G. Zheng, J. L. Sonnenberg, M. Hada, 
 M. Ehara, K. Toyota, R. Fukuda, J. Hasegawa, M. Ishida, T. Nakajima, 
 Y. Honda, O. Kitao, H. Nakai, T. Vreven, J. A. Montgomery, Jr., 
 J. E. Peralta, F. Ogliaro, M. Bearpark, J. J. Heyd, E. Brothers, 
 K. N. Kudin, V. N. Staroverov, T. Keith, R. Kobayashi, J. Normand, 
 K. Raghavachari, A. Rendell, J. C. Burant, S. S. Iyengar, J. Tomasi, 
 M. Cossi, N. Rega, J. M. Millam, M. Klene, J. E. Knox, J. B. Cross, 
 V. Bakken, C. Adamo, J. Jaramillo, R. Gomperts, R. E. Stratmann, 
 O. Yazyev, A. J. Austin, R. Cammi, C. Pomelli, J. W. Ochterski, 
 R. L. Martin, K. Morokuma, V. G. Zakrzewski, G. A. Voth, 
 P. Salvador, J. J. Dannenberg, S. Dapprich, A. D. Daniels, 
 O. Farkas, J. B. Foresman, J. V. Ortiz, J. Cioslowski, 
 and D. J. Fox, Gaussian, Inc., Wallingford CT, 2010.
 
 ******************************************
 Gaussian 09:  EM64L-G09RevC.01 23-Sep-2011
                 3-May-2017 
 ******************************************
 %nprocshared=8
 Will use up to    8 processors via shared memory.
 ------------------------------------------------------------
 #p wb97xd/TZVP nosymm geom=connectivity opt freq temp=373.15
 ------------------------------------------------------------
 1/14=-1,18=20,19=15,26=3,38=1,57=2,112=373150/1,3;
 2/9=110,12=2,15=1,17=6,18=5,40=1/2;
 3/5=19,7=101,11=2,16=1,25=1,30=1,71=1,74=-58/1,2,3;
 4//1;
 5/5=2,38=5/2;
 6/7=2,8=2,9=2,10=2,28=1/1;
 7/30=1/1,2,3,16;
 1/14=-1,18=20,19=15/3(2);
 2/9=110,15=1/2;
 99//99;
 2/9=110,15=1/2;
 3/5=19,7=101,11=2,16=1,25=1,30=1,71=1,74=-58/1,2,3;
 4/5=5,16=3/1;
 5/5=2,38=5/2;
 7/30=1/1,2,3,16;
 1/14=-1,18=20,19=15/3(-5);
 2/9=110,15=1/2;
 6/7=2,8=2,9=2,10=2,19=2,28=1/1;
 99/9=1/99;
 Leave Link    1 at Wed May  3 10:14:47 2017, MaxMem=          0 cpu:       0.3
 (Enter /share/apps/gaussian09/g09/l101.exe)
 -------------------
 Title Card Required
 -------------------
 Charge =  0 Multiplicity = 1
 Symbolic Z-Matrix:
 C                    -1.73367   2.09171   0. 
 C                    -0.22652   2.09171   0. 
 H                    -2.12348   3.13807   0. 
 H                    -2.1272    1.56852  -0.90491 
 H                    -2.12729   1.5684    0.90479 
 C                     0.33323   0.69238  -0.00007 
 H                     0.14755   2.64442  -0.90237 
 H                     0.14762   2.64437   0.90236 
 H                     1.4495    0.71898  -0.00013 
 H                    -0.00645   0.13264   0.90481 
 H                    -0.00653   0.1327   -0.90496 
 
 NAtoms=     11 NQM=        0 NQMF=       0 NMMI=     11 NMMIF=      0
                NMic=       0 NMicF=      0.
                    Isotopes and Nuclear Properties:
 (Nuclear quadrupole moments (NQMom) in fm**2, nuclear magnetic moments (NMagM)
  in nuclear magnetons)

  Atom         1           2           3           4           5           6           7           8           9          10
 IAtWgt=          12          12           1           1           1          12           1           1           1           1
 AtmWgt=  12.0000000  12.0000000   1.0078250   1.0078250   1.0078250  12.0000000   1.0078250   1.0078250   1.0078250   1.0078250
 NucSpn=           0           0           1           1           1           0           1           1           1           1
 AtZEff=   0.0000000   0.0000000   0.0000000   0.0000000   0.0000000   0.0000000   0.0000000   0.0000000   0.0000000   0.0000000
 NQMom=    0.0000000   0.0000000   0.0000000   0.0000000   0.0000000   0.0000000   0.0000000   0.0000000   0.0000000   0.0000000
 NMagM=    0.0000000   0.0000000   2.7928460   2.7928460   2.7928460   0.0000000   2.7928460   2.7928460   2.7928460   2.7928460

  Atom        11
 IAtWgt=           1
 AtmWgt=   1.0078250
 NucSpn=           1
 AtZEff=   0.0000000
 NQMom=    0.0000000
 NMagM=    2.7928460
 Leave Link  101 at Wed May  3 10:14:47 2017, MaxMem=   33554432 cpu:       1.1
 (Enter /share/apps/gaussian09/g09/l103.exe)

 GradGradGradGradGradGradGradGradGradGradGradGradGradGradGradGradGradGrad
 Berny optimization.
 Initialization pass.
                           ----------------------------
                           !    Initial Parameters    !
                           ! (Angstroms and Degrees)  !
 --------------------------                            --------------------------
 ! Name  Definition              Value          Derivative Info.                !
 --------------------------------------------------------------------------------
 ! R1    R(1,2)                  1.5072         estimate D2E/DX2                !
 ! R2    R(1,3)                  1.1166         estimate D2E/DX2                !
 ! R3    R(1,4)                  1.1169         estimate D2E/DX2                !
 ! R4    R(1,5)                  1.1169         estimate D2E/DX2                !
 ! R5    R(2,6)                  1.5071         estimate D2E/DX2                !
 ! R6    R(2,7)                  1.1224         estimate D2E/DX2                !
 ! R7    R(2,8)                  1.1224         estimate D2E/DX2                !
 ! R8    R(6,9)                  1.1166         estimate D2E/DX2                !
 ! R9    R(6,10)                 1.1169         estimate D2E/DX2                !
 ! R10   R(6,11)                 1.1169         estimate D2E/DX2                !
 ! A1    A(2,1,3)              110.4325         estimate D2E/DX2                !
 ! A2    A(2,1,4)              110.6308         estimate D2E/DX2                !
 ! A3    A(2,1,5)              110.6361         estimate D2E/DX2                !
 ! A4    A(3,1,4)              108.4186         estimate D2E/DX2                !
 ! A5    A(3,1,5)              108.4228         estimate D2E/DX2                !
 ! A6    A(4,1,5)              108.2212         estimate D2E/DX2                !
 ! A7    A(1,2,6)              111.802          estimate D2E/DX2                !
 ! A8    A(1,2,7)              109.4684         estimate D2E/DX2                !
 ! A9    A(1,2,8)              109.4724         estimate D2E/DX2                !
 ! A10   A(6,2,7)              109.4761         estimate D2E/DX2                !
 ! A11   A(6,2,8)              109.4767         estimate D2E/DX2                !
 ! A12   A(7,2,8)              107.0263         estimate D2E/DX2                !
 ! A13   A(2,6,9)              110.4371         estimate D2E/DX2                !
 ! A14   A(2,6,10)             110.6289         estimate D2E/DX2                !
 ! A15   A(2,6,11)             110.629          estimate D2E/DX2                !
 ! A16   A(9,6,10)             108.422          estimate D2E/DX2                !
 ! A17   A(9,6,11)             108.421          estimate D2E/DX2                !
 ! A18   A(10,6,11)            108.224          estimate D2E/DX2                !
 ! D1    D(3,1,2,6)           -179.9971         estimate D2E/DX2                !
 ! D2    D(3,1,2,7)            -58.5119         estimate D2E/DX2                !
 ! D3    D(3,1,2,8)             58.5143         estimate D2E/DX2                !
 ! D4    D(4,1,2,6)            -59.9619         estimate D2E/DX2                !
 ! D5    D(4,1,2,7)             61.5233         estimate D2E/DX2                !
 ! D6    D(4,1,2,8)            178.5495         estimate D2E/DX2                !
 ! D7    D(5,1,2,6)             59.959          estimate D2E/DX2                !
 ! D8    D(5,1,2,7)           -178.5558         estimate D2E/DX2                !
 ! D9    D(5,1,2,8)            -61.5296         estimate D2E/DX2                !
 ! D10   D(1,2,6,9)            179.9967         estimate D2E/DX2                !
 ! D11   D(1,2,6,10)           -59.9619         estimate D2E/DX2                !
 ! D12   D(1,2,6,11)            59.9566         estimate D2E/DX2                !
 ! D13   D(7,2,6,9)             58.516          estimate D2E/DX2                !
 ! D14   D(7,2,6,10)           178.5573         estimate D2E/DX2                !
 ! D15   D(7,2,6,11)           -61.5241         estimate D2E/DX2                !
 ! D16   D(8,2,6,9)            -58.5171         estimate D2E/DX2                !
 ! D17   D(8,2,6,10)            61.5243         estimate D2E/DX2                !
 ! D18   D(8,2,6,11)          -178.5572         estimate D2E/DX2                !
 --------------------------------------------------------------------------------
 Trust Radius=3.00D-01 FncErr=1.00D-07 GrdErr=1.00D-06
 Number of steps in this run=     56 maximum allowed number of steps=    100.
 GradGradGradGradGradGradGradGradGradGradGradGradGradGradGradGradGradGrad

 Leave Link  103 at Wed May  3 10:14:47 2017, MaxMem=   33554432 cpu:       0.1
 (Enter /share/apps/gaussian09/g09/l202.exe)
                          Input orientation:                          
 ---------------------------------------------------------------------
 Center     Atomic      Atomic             Coordinates (Angstroms)
 Number     Number       Type             X           Y           Z
 ---------------------------------------------------------------------
      1          6           0       -1.733668    2.091709    0.000000
      2          6           0       -0.226518    2.091709    0.000000
      3          1           0       -2.123481    3.138069    0.000000
      4          1           0       -2.127200    1.568518   -0.904910
      5          1           0       -2.127293    1.568404    0.904788
      6          6           0        0.333229    0.692381   -0.000072
      7          1           0        0.147549    2.644424   -0.902368
      8          1           0        0.147621    2.644369    0.902364
      9          1           0        1.449501    0.718977   -0.000130
     10          1           0       -0.006449    0.132640    0.904809
     11          1           0       -0.006526    0.132700   -0.904963
 ---------------------------------------------------------------------
                    Distance matrix (angstroms):
                    1          2          3          4          5
     1  C    0.000000
     2  C    1.507150   0.000000
     3  H    1.116612   2.166411   0.000000
     4  H    1.116897   2.169143   1.811730   0.000000
     5  H    1.116884   2.169201   1.811768   1.809698   0.000000
     6  C    2.496033   1.507128   3.466528   2.764066   2.764119
     7  H    2.158411   1.122358   2.493097   2.516359   3.098151
     8  H    2.158458   1.122352   2.493172   3.098145   2.516533
     9  H    3.466548   2.166433   4.314882   3.785913   3.786008
    10  H    2.764040   2.169115   3.785909   3.135987   2.561132
    11  H    2.764000   2.169118   3.785855   2.561022   3.135936
                    6          7          8          9         10
     6  C    0.000000
     7  H    2.158492   0.000000
     8  H    2.158494   1.804732   0.000000
     9  H    1.116589   2.493283   2.493295   0.000000
    10  H    1.116916   3.098171   2.516451   1.811766   0.000000
    11  H    1.116917   2.516447   3.098173   1.811756   1.809772
                   11
    11  H    0.000000
 Symmetry turned off by external request.
 Stoichiometry    C3H8
 Framework group  C1[X(C3H8)]
 Deg. of freedom    27
 Full point group                 C1      NOp   1
 Rotational constants (GHZ):     28.8814845      8.6662864      7.6654094
 Leave Link  202 at Wed May  3 10:14:47 2017, MaxMem=   33554432 cpu:       0.0
 (Enter /share/apps/gaussian09/g09/l301.exe)
 Standard basis: TZVP (5D, 7F)
 Ernie: Thresh=  0.10000D-02 Tol=  0.10000D-05 Strict=F.
 Integral buffers will be    131072 words long.
 Raffenetti 2 integral format.
 Two-electron integral symmetry is turned off.
   105 basis functions,   169 primitive gaussians,   108 cartesian basis functions
    13 alpha electrons       13 beta electrons
       nuclear repulsion energy        82.5771235495 Hartrees.
 IExCor= 4639 DFT=T Ex+Corr=wB97XD ExCW=0 ScaHFX=  1.000000
 ScaDFX=  1.000000  1.000000  1.000000  1.000000 ScalE2=  1.000000  1.000000
 IRadAn=      0 IRanWt=     -1 IRanGd=            0 ICorTp=0
  HFx wShort=  0.000000 wLong=  0.200000 cFull=  0.222036 cShort=  0.000000 cLong=  0.777964
  DFx wShort=  0.000000 wLong=  0.200000 cFull=  0.000000 cShort=  0.000000 cLong=  1.000000
 NAtoms=   11 NActive=   11 NUniq=   11 SFac= 1.00D+00 NAtFMM=   60 NAOKFM=F Big=F
 R6Disp: Dispersion energy =        -0.0040811944 Hartrees.
 Nuclear repulsion after empirical dispersion term =       82.5730423550 Hartrees.
 Leave Link  301 at Wed May  3 10:14:47 2017, MaxMem=   33554432 cpu:       0.6
 (Enter /share/apps/gaussian09/g09/l302.exe)
 NPDir=0 NMtPBC=     1 NCelOv=     1 NCel=       1 NClECP=     1 NCelD=      1
         NCelK=      1 NCelE2=     1 NClLst=     1 CellRange=     0.0.
 One-electron integrals computed using PRISM.
 NBasis=   105 RedAO= T  NBF=   105
 NBsUse=   105 1.00D-06 NBFU=   105
 Precomputing XC quadrature grid using
 IXCGrd= 2 IRadAn=           0 IRanWt=          -1 IRanGd=           0 AccXCQ= 0.00D+00.
 NRdTot=     689 NPtTot=       87146 NUsed=       92125 NTot=       92157
 NSgBfM=   108   108   108   108   108 NAtAll=    11    11.
 Leave Link  302 at Wed May  3 10:14:47 2017, MaxMem=   33554432 cpu:       1.8
 (Enter /share/apps/gaussian09/g09/l303.exe)
 DipDrv:  MaxL=1.
 Leave Link  303 at Wed May  3 10:14:47 2017, MaxMem=   33554432 cpu:       0.4
 (Enter /share/apps/gaussian09/g09/l401.exe)
 Harris functional with IExCor= 4639 diagonalized for initial guess.
 ExpMin= 9.52D-02 ExpMax= 1.36D+04 ExpMxC= 4.63D+02 IAcc=2 IRadAn=         4 AccDes= 0.00D+00
 HarFok:  IExCor= 4639 AccDes= 0.00D+00 IRadAn=         4 IDoV= 1
 ScaDFX=  1.000000  1.000000  1.000000  1.000000
 FoFCou: FMM=F IPFlag=           0 FMFlag=      100000 FMFlg1=           0
         NFxFlg=           0 DoJE=T BraDBF=F KetDBF=T FulRan=T
         Omega=  0.000000  0.000000  1.000000  0.000000  0.000000 ICntrl=     500 IOpCl=  0
         NMat0=    1 NMatS0=    1 NMatT0=    0 NMatD0=    1 NMtDS0=    0 NMtDT0=    0
         I1Cent=           4 NGrid=           0.
 Symmetry not used in FoFCou.
 Harris En= -112.980519070579    
 Leave Link  401 at Wed May  3 10:14:48 2017, MaxMem=   33554432 cpu:       3.6
 (Enter /share/apps/gaussian09/g09/l502.exe)
 Closed shell SCF:
 Requested convergence on RMS density matrix=1.00D-08 within 128 cycles.
 Requested convergence on MAX density matrix=1.00D-06.
 Requested convergence on             energy=1.00D-06.
 No special actions if energy rises.
 Using DIIS extrapolation, IDIIS=  1040.
 Two-electron integral symmetry not used.
        92013 words used for storage of precomputed grid.
 IEnd=      146685 IEndB=      146685 NGot=    33554432 MDV=    33436160
 LenX=    33436160 LenY=    33424055
 Fock matrices will be formed incrementally for  20 cycles.
 Integral accuracy reduced to 1.0D-05 until final iterations.

 Cycle   1  Pass 0  IDiag  1:
 FoFJK:  IHMeth= 1 ICntrl=     0 DoSepK=T KAlg= 1 I1Cent= 0 FoldK=F
 FoFCou: FMM=F IPFlag=           0 FMFlag=      100000 FMFlg1=           0
         NFxFlg=           0 DoJE=T BraDBF=F KetDBF=F FulRan=T
         Omega=  0.000000  0.000000  1.000000  0.000000  0.000000 ICntrl=     500 IOpCl=  0
         NMat0=    1 NMatS0=    1 NMatT0=    0 NMatD0=    1 NMtDS0=    0 NMtDT0=    0
         I1Cent=           0 NGrid=           0.
 Symmetry not used in FoFCou.
 E= -119.101073374656    
 DIIS: error= 6.55D-02 at cycle   1 NSaved=   1.
 NSaved= 1 IEnMin= 1 EnMin= -119.101073374656     IErMin= 1 ErrMin= 6.55D-02
 ErrMax= 6.55D-02 EMaxC= 1.00D-01 BMatC= 2.56D-01 BMatP= 2.56D-01
 IDIUse=3 WtCom= 3.45D-01 WtEn= 6.55D-01
 Coeff-Com:  0.100D+01
 Coeff-En:   0.100D+01
 Coeff:      0.100D+01
 Gap=     0.495 Goal=   None    Shift=    0.000
 GapD=    0.495 DampG=2.000 DampE=0.500 DampFc=1.0000 IDamp=-1.
 RMSDP=2.21D-03 MaxDP=4.08D-02              OVMax= 5.55D-02

 Cycle   2  Pass 0  IDiag  1:
 RMSU=  1.53D-03    CP:  9.73D-01
 FoFJK:  IHMeth= 1 ICntrl=     0 DoSepK=T KAlg= 1 I1Cent= 0 FoldK=F
 E= -119.132588663101     Delta-E=       -0.031515288445 Rises=F Damp=F
 DIIS: error= 1.34D-02 at cycle   2 NSaved=   2.
 NSaved= 2 IEnMin= 2 EnMin= -119.132588663101     IErMin= 2 ErrMin= 1.34D-02
 ErrMax= 1.34D-02 EMaxC= 1.00D-01 BMatC= 1.07D-02 BMatP= 2.56D-01
 IDIUse=3 WtCom= 8.66D-01 WtEn= 1.34D-01
 Coeff-Com:  0.922D-01 0.908D+00
 Coeff-En:   0.000D+00 0.100D+01
 Coeff:      0.798D-01 0.920D+00
 Gap=     0.553 Goal=   None    Shift=    0.000
 RMSDP=1.07D-03 MaxDP=1.79D-02 DE=-3.15D-02 OVMax= 3.73D-02

 Cycle   3  Pass 0  IDiag  1:
 RMSU=  6.49D-04    CP:  9.85D-01  7.66D-01
 FoFJK:  IHMeth= 1 ICntrl=     0 DoSepK=T KAlg= 1 I1Cent= 0 FoldK=F
 E= -119.138146371651     Delta-E=       -0.005557708550 Rises=F Damp=F
 DIIS: error= 9.37D-03 at cycle   3 NSaved=   3.
 NSaved= 3 IEnMin= 3 EnMin= -119.138146371651     IErMin= 3 ErrMin= 9.37D-03
 ErrMax= 9.37D-03 EMaxC= 1.00D-01 BMatC= 5.27D-03 BMatP= 1.07D-02
 IDIUse=3 WtCom= 9.06D-01 WtEn= 9.37D-02
 Coeff-Com:  0.251D-01 0.415D+00 0.560D+00
 Coeff-En:   0.000D+00 0.295D+00 0.705D+00
 Coeff:      0.228D-01 0.403D+00 0.574D+00
 Gap=     0.514 Goal=   None    Shift=    0.000
 RMSDP=4.15D-04 MaxDP=6.61D-03 DE=-5.56D-03 OVMax= 1.51D-02

 Cycle   4  Pass 0  IDiag  1:
 RMSU=  8.29D-05    CP:  9.81D-01  8.67D-01  6.46D-01
 FoFJK:  IHMeth= 1 ICntrl=     0 DoSepK=T KAlg= 1 I1Cent= 0 FoldK=F
 E= -119.143181328122     Delta-E=       -0.005034956471 Rises=F Damp=F
 DIIS: error= 4.40D-04 at cycle   4 NSaved=   4.
 NSaved= 4 IEnMin= 4 EnMin= -119.143181328122     IErMin= 4 ErrMin= 4.40D-04
 ErrMax= 4.40D-04 EMaxC= 1.00D-01 BMatC= 1.01D-05 BMatP= 5.27D-03
 IDIUse=3 WtCom= 9.96D-01 WtEn= 4.40D-03
 Coeff-Com: -0.184D-02-0.289D-01-0.444D-02 0.104D+01
 Coeff-En:   0.000D+00 0.000D+00 0.000D+00 0.100D+01
 Coeff:     -0.183D-02-0.287D-01-0.442D-02 0.103D+01
 Gap=     0.515 Goal=   None    Shift=    0.000
 RMSDP=4.88D-05 MaxDP=5.94D-04 DE=-5.03D-03 OVMax= 1.20D-03

 Cycle   5  Pass 0  IDiag  1:
 RMSU=  1.86D-05    CP:  9.81D-01  8.66D-01  6.77D-01  1.25D+00
 FoFJK:  IHMeth= 1 ICntrl=     0 DoSepK=T KAlg= 1 I1Cent= 0 FoldK=F
 E= -119.143193649266     Delta-E=       -0.000012321144 Rises=F Damp=F
 DIIS: error= 1.25D-04 at cycle   5 NSaved=   5.
 NSaved= 5 IEnMin= 5 EnMin= -119.143193649266     IErMin= 5 ErrMin= 1.25D-04
 ErrMax= 1.25D-04 EMaxC= 1.00D-01 BMatC= 1.64D-06 BMatP= 1.01D-05
 IDIUse=3 WtCom= 9.99D-01 WtEn= 1.25D-03
 Coeff-Com: -0.230D-02-0.380D-01-0.374D-01 0.385D+00 0.693D+00
 Coeff-En:   0.000D+00 0.000D+00 0.000D+00 0.000D+00 0.100D+01
 Coeff:     -0.230D-02-0.380D-01-0.373D-01 0.385D+00 0.693D+00
 Gap=     0.515 Goal=   None    Shift=    0.000
 RMSDP=1.12D-05 MaxDP=1.57D-04 DE=-1.23D-05 OVMax= 3.12D-04

 Cycle   6  Pass 0  IDiag  1:
 RMSU=  5.65D-06    CP:  9.81D-01  8.67D-01  6.79D-01  1.31D+00  1.00D+00
 FoFJK:  IHMeth= 1 ICntrl=     0 DoSepK=T KAlg= 1 I1Cent= 0 FoldK=F
 E= -119.143195273522     Delta-E=       -0.000001624256 Rises=F Damp=F
 DIIS: error= 2.09D-05 at cycle   6 NSaved=   6.
 NSaved= 6 IEnMin= 6 EnMin= -119.143195273522     IErMin= 6 ErrMin= 2.09D-05
 ErrMax= 2.09D-05 EMaxC= 1.00D-01 BMatC= 4.07D-08 BMatP= 1.64D-06
 IDIUse=1 WtCom= 1.00D+00 WtEn= 0.00D+00
 Coeff-Com: -0.241D-03-0.397D-02-0.499D-02-0.146D-01 0.101D+00 0.923D+00
 Coeff:     -0.241D-03-0.397D-02-0.499D-02-0.146D-01 0.101D+00 0.923D+00
 Gap=     0.515 Goal=   None    Shift=    0.000
 RMSDP=4.76D-06 MaxDP=4.60D-05 DE=-1.62D-06 OVMax= 8.90D-05

 Initial convergence to 1.0D-05 achieved.  Increase integral accuracy.
 Cycle   7  Pass 1  IDiag  1:
 FoFJK:  IHMeth= 1 ICntrl=     0 DoSepK=T KAlg= 1 I1Cent= 0 FoldK=F
 E= -119.142799708770     Delta-E=        0.000395564752 Rises=F Damp=F
 DIIS: error= 1.59D-04 at cycle   1 NSaved=   1.
 NSaved= 1 IEnMin= 1 EnMin= -119.142799708770     IErMin= 1 ErrMin= 1.59D-04
 ErrMax= 1.59D-04 EMaxC= 1.00D-01 BMatC= 2.14D-06 BMatP= 2.14D-06
 IDIUse=3 WtCom= 9.98D-01 WtEn= 1.59D-03
 Coeff-Com:  0.100D+01
 Coeff-En:   0.100D+01
 Coeff:      0.100D+01
 Gap=     0.515 Goal=   None    Shift=    0.000
 RMSDP=4.76D-06 MaxDP=4.60D-05 DE= 3.96D-04 OVMax= 2.67D-04

 Cycle   8  Pass 1  IDiag  1:
 RMSU=  1.39D-05    CP:  1.00D+00
 FoFJK:  IHMeth= 1 ICntrl=     0 DoSepK=T KAlg= 1 I1Cent= 0 FoldK=F
 E= -119.142801145708     Delta-E=       -0.000001436939 Rises=F Damp=F
 DIIS: error= 1.92D-05 at cycle   2 NSaved=   2.
 NSaved= 2 IEnMin= 2 EnMin= -119.142801145708     IErMin= 2 ErrMin= 1.92D-05
 ErrMax= 1.92D-05 EMaxC= 1.00D-01 BMatC= 2.21D-08 BMatP= 2.14D-06
 IDIUse=1 WtCom= 1.00D+00 WtEn= 0.00D+00
 Coeff-Com: -0.561D-01 0.106D+01
 Coeff:     -0.561D-01 0.106D+01
 Gap=     0.515 Goal=   None    Shift=    0.000
 RMSDP=2.25D-06 MaxDP=2.77D-05 DE=-1.44D-06 OVMax= 5.58D-05

 Cycle   9  Pass 1  IDiag  1:
 RMSU=  1.19D-06    CP:  1.00D+00  1.08D+00
 FoFJK:  IHMeth= 1 ICntrl=     0 DoSepK=T KAlg= 1 I1Cent= 0 FoldK=F
 E= -119.142801170466     Delta-E=       -0.000000024758 Rises=F Damp=F
 DIIS: error= 8.71D-06 at cycle   3 NSaved=   3.
 NSaved= 3 IEnMin= 3 EnMin= -119.142801170466     IErMin= 3 ErrMin= 8.71D-06
 ErrMax= 8.71D-06 EMaxC= 1.00D-01 BMatC= 4.05D-09 BMatP= 2.21D-08
 IDIUse=1 WtCom= 1.00D+00 WtEn= 0.00D+00
 Coeff-Com: -0.238D-01 0.294D+00 0.730D+00
 Coeff:     -0.238D-01 0.294D+00 0.730D+00
 Gap=     0.515 Goal=   None    Shift=    0.000
 RMSDP=6.06D-07 MaxDP=1.18D-05 DE=-2.48D-08 OVMax= 1.88D-05

 Cycle  10  Pass 1  IDiag  1:
 RMSU=  4.14D-07    CP:  1.00D+00  1.08D+00  1.03D+00
 FoFJK:  IHMeth= 1 ICntrl=     0 DoSepK=T KAlg= 1 I1Cent= 0 FoldK=F
 E= -119.142801174088     Delta-E=       -0.000000003622 Rises=F Damp=F
 DIIS: error= 3.00D-06 at cycle   4 NSaved=   4.
 NSaved= 4 IEnMin= 4 EnMin= -119.142801174088     IErMin= 4 ErrMin= 3.00D-06
 ErrMax= 3.00D-06 EMaxC= 1.00D-01 BMatC= 4.16D-10 BMatP= 4.05D-09
 IDIUse=1 WtCom= 1.00D+00 WtEn= 0.00D+00
 Coeff-Com:  0.308D-04-0.375D-01 0.204D+00 0.833D+00
 Coeff:      0.308D-04-0.375D-01 0.204D+00 0.833D+00
 Gap=     0.515 Goal=   None    Shift=    0.000
 RMSDP=2.11D-07 MaxDP=3.30D-06 DE=-3.62D-09 OVMax= 7.18D-06

 Cycle  11  Pass 1  IDiag  1:
 RMSU=  8.91D-08    CP:  1.00D+00  1.08D+00  1.13D+00  1.00D+00
 FoFJK:  IHMeth= 1 ICntrl=     0 DoSepK=T KAlg= 1 I1Cent= 0 FoldK=F
 E= -119.142801174575     Delta-E=       -0.000000000487 Rises=F Damp=F
 DIIS: error= 4.54D-07 at cycle   5 NSaved=   5.
 NSaved= 5 IEnMin= 5 EnMin= -119.142801174575     IErMin= 5 ErrMin= 4.54D-07
 ErrMax= 4.54D-07 EMaxC= 1.00D-01 BMatC= 1.24D-11 BMatP= 4.16D-10
 IDIUse=1 WtCom= 1.00D+00 WtEn= 0.00D+00
 Coeff-Com:  0.106D-02-0.191D-01-0.479D-02 0.144D+00 0.878D+00
 Coeff:      0.106D-02-0.191D-01-0.479D-02 0.144D+00 0.878D+00
 Gap=     0.515 Goal=   None    Shift=    0.000
 RMSDP=6.12D-08 MaxDP=6.57D-07 DE=-4.87D-10 OVMax= 1.45D-06

 Cycle  12  Pass 1  IDiag  1:
 RMSU=  2.54D-08    CP:  1.00D+00  1.08D+00  1.15D+00  1.05D+00  1.04D+00
 FoFJK:  IHMeth= 1 ICntrl=     0 DoSepK=T KAlg= 1 I1Cent= 0 FoldK=F
 E= -119.142801174593     Delta-E=       -0.000000000018 Rises=F Damp=F
 DIIS: error= 6.42D-08 at cycle   6 NSaved=   6.
 NSaved= 6 IEnMin= 6 EnMin= -119.142801174593     IErMin= 6 ErrMin= 6.42D-08
 ErrMax= 6.42D-08 EMaxC= 1.00D-01 BMatC= 3.87D-13 BMatP= 1.24D-11
 IDIUse=1 WtCom= 1.00D+00 WtEn= 0.00D+00
 Coeff-Com:  0.463D-04 0.145D-02-0.133D-01-0.419D-01 0.243D-01 0.103D+01
 Coeff:      0.463D-04 0.145D-02-0.133D-01-0.419D-01 0.243D-01 0.103D+01
 Gap=     0.515 Goal=   None    Shift=    0.000
 RMSDP=2.18D-08 MaxDP=2.43D-07 DE=-1.81D-11 OVMax= 3.76D-07

 Cycle  13  Pass 1  IDiag  1:
 RMSU=  4.87D-09    CP:  1.00D+00  1.08D+00  1.16D+00  1.07D+00  1.14D+00
                    CP:  1.18D+00
 FoFJK:  IHMeth= 1 ICntrl=     0 DoSepK=T KAlg= 1 I1Cent= 0 FoldK=F
 E= -119.142801174594     Delta-E=       -0.000000000001 Rises=F Damp=F
 DIIS: error= 1.53D-08 at cycle   7 NSaved=   7.
 NSaved= 7 IEnMin= 7 EnMin= -119.142801174594     IErMin= 7 ErrMin= 1.53D-08
 ErrMax= 1.53D-08 EMaxC= 1.00D-01 BMatC= 2.54D-14 BMatP= 3.87D-13
 IDIUse=1 WtCom= 1.00D+00 WtEn= 0.00D+00
 Coeff-Com: -0.152D-04 0.831D-03-0.326D-02-0.151D-01-0.153D-01 0.247D+00
 Coeff-Com:  0.786D+00
 Coeff:     -0.152D-04 0.831D-03-0.326D-02-0.151D-01-0.153D-01 0.247D+00
 Coeff:      0.786D+00
 Gap=     0.515 Goal=   None    Shift=    0.000
 RMSDP=2.86D-09 MaxDP=2.89D-08 DE=-8.53D-13 OVMax= 6.12D-08

 SCF Done:  E(RwB97XD) =  -119.142801175     A.U. after   13 cycles
             Convg  =    0.2860D-08             -V/T =  2.0076
 KE= 1.182413022764D+02 PE=-4.401682499174D+02 EE= 1.202111041114D+02
 Leave Link  502 at Wed May  3 10:14:57 2017, MaxMem=   33554432 cpu:      69.6
 (Enter /share/apps/gaussian09/g09/l601.exe)
 Copying SCF densities to generalized density rwf, IOpCl= 0 IROHF=0.

 **********************************************************************

            Population analysis using the SCF density.

 **********************************************************************

 Alpha  occ. eigenvalues --  -10.28021 -10.27413 -10.27411  -0.88399  -0.77197
 Alpha  occ. eigenvalues --   -0.66782  -0.54603  -0.52378  -0.48218  -0.45991
 Alpha  occ. eigenvalues --   -0.41665  -0.41574  -0.40298
 Alpha virt. eigenvalues --    0.11188   0.15708   0.16015   0.16432   0.18089
 Alpha virt. eigenvalues --    0.19778   0.21618   0.22596   0.22611   0.28406
 Alpha virt. eigenvalues --    0.29373   0.30383   0.30667   0.35203   0.35462
 Alpha virt. eigenvalues --    0.39400   0.41014   0.46721   0.49002   0.50010
 Alpha virt. eigenvalues --    0.51688   0.51831   0.52820   0.55491   0.56610
 Alpha virt. eigenvalues --    0.58339   0.60210   0.64641   0.67535   0.69403
 Alpha virt. eigenvalues --    1.17008   1.18116   1.33153   1.35340   1.35965
 Alpha virt. eigenvalues --    1.37304   1.37353   1.42095   1.42964   1.46917
 Alpha virt. eigenvalues --    1.47388   1.47712   1.51649   1.53616   1.59817
 Alpha virt. eigenvalues --    1.61382   1.61672   1.71509   1.73694   1.75533
 Alpha virt. eigenvalues --    1.82757   1.86508   1.87511   1.87680   1.88110
 Alpha virt. eigenvalues --    1.90998   1.93396   1.97576   2.01729   2.12936
 Alpha virt. eigenvalues --    2.21363   2.25381   2.27532   2.29531   2.37962
 Alpha virt. eigenvalues --    2.38236   2.39862   2.44932   2.51268   2.55780
 Alpha virt. eigenvalues --    2.57001   2.64716   2.65920   2.67784   2.71875
 Alpha virt. eigenvalues --    2.76637   2.76924   2.78679   2.80248   2.90100
 Alpha virt. eigenvalues --    3.13680   3.22002   3.33487   3.33798   3.39223
 Alpha virt. eigenvalues --    3.41374   3.46968   3.47417   3.50417  22.03948
 Alpha virt. eigenvalues --   22.13667  22.16549
          Condensed to atoms (all electrons):
              1          2          3          4          5          6
     1  C    5.030085   0.284119   0.403116   0.405028   0.405021  -0.086347
     2  C    0.284119   5.011083  -0.043719  -0.038291  -0.038286   0.284192
     3  H    0.403116  -0.043719   0.560073  -0.022803  -0.022797   0.013903
     4  H    0.405028  -0.038291  -0.022803   0.583017  -0.032255  -0.007471
     5  H    0.405021  -0.038286  -0.022797  -0.032255   0.583000  -0.007466
     6  C   -0.086347   0.284192   0.013903  -0.007471  -0.007466   5.030020
     7  H   -0.046291   0.421654  -0.003771  -0.007399   0.008455  -0.046284
     8  H   -0.046283   0.421641  -0.003772   0.008455  -0.007396  -0.046279
     9  H    0.013907  -0.043721  -0.000474  -0.000206  -0.000206   0.403128
    10  H   -0.007480  -0.038284  -0.000206  -0.000766   0.006222   0.405023
    11  H   -0.007480  -0.038286  -0.000206   0.006223  -0.000766   0.405025
              7          8          9         10         11
     1  C   -0.046291  -0.046283   0.013907  -0.007480  -0.007480
     2  C    0.421654   0.421641  -0.043721  -0.038284  -0.038286
     3  H   -0.003771  -0.003772  -0.000474  -0.000206  -0.000206
     4  H   -0.007399   0.008455  -0.000206  -0.000766   0.006223
     5  H    0.008455  -0.007396  -0.000206   0.006222  -0.000766
     6  C   -0.046284  -0.046279   0.403128   0.405023   0.405025
     7  H    0.604849  -0.033323  -0.003772   0.008456  -0.007401
     8  H   -0.033323   0.604842  -0.003773  -0.007401   0.008456
     9  H   -0.003772  -0.003773   0.560041  -0.022796  -0.022798
    10  H    0.008456  -0.007401  -0.022796   0.582978  -0.032252
    11  H   -0.007401   0.008456  -0.022798  -0.032252   0.582982
 Mulliken atomic charges:
              1
     1  C   -0.347393
     2  C   -0.182101
     3  H    0.120656
     4  H    0.106468
     5  H    0.106474
     6  C   -0.347445
     7  H    0.104829
     8  H    0.104832
     9  H    0.120670
    10  H    0.106506
    11  H    0.106504
 Sum of Mulliken atomic charges =   0.00000
 Mulliken charges with hydrogens summed into heavy atoms:
              1
     1  C   -0.013795
     2  C    0.027560
     6  C   -0.013765
 Sum of Mulliken charges with hydrogens summed into heavy atoms =   0.00000
 Electronic spatial extent (au):  <R**2>=            492.8690
 Charge=              0.0000 electrons
 Dipole moment (field-independent basis, Debye):
    X=              0.0546    Y=              0.0808    Z=              0.0000  Tot=              0.0975
 Quadrupole moment (field-independent basis, Debye-Ang):
   XX=            -22.4715   YY=            -21.9696   ZZ=            -21.4447
   XY=              0.2708   XZ=              0.0000   YZ=             -0.0001
 Traceless Quadrupole moment (field-independent basis, Debye-Ang):
   XX=             -0.5095   YY=             -0.0077   ZZ=              0.5172
   XY=              0.2708   XZ=              0.0000   YZ=             -0.0001
 Octapole moment (field-independent basis, Debye-Ang**2):
  XXX=             39.5298  YYY=           -104.9266  ZZZ=              0.0020  XYY=             12.0786
  XXY=            -36.1738  XXZ=              0.0008  XZZ=             11.5811  YZZ=            -34.9262
  YYZ=              0.0004  XYZ=              0.0002
 Hexadecapole moment (field-independent basis, Debye-Ang**3):
 XXXX=           -206.8183 YYYY=           -446.0656 ZZZZ=            -45.9896 XXXY=             93.3257
 XXXZ=             -0.0009 YYYX=             84.5936 YYYZ=              0.0010 ZZZX=              0.0004
 ZZZY=              0.0018 XXYY=           -110.1598 XXZZ=            -40.7427 YYZZ=            -82.2168
 XXYZ=              0.0005 YYXZ=              0.0008 ZZXY=             30.3044
 N-N= 8.257304235501D+01 E-N=-4.401682488484D+02  KE= 1.182413022764D+02
 No NMR shielding tensors so no spin-rotation constants.
 Leave Link  601 at Wed May  3 10:14:57 2017, MaxMem=   33554432 cpu:       1.3
 (Enter /share/apps/gaussian09/g09/l701.exe)
 Compute integral first derivatives.
 ... and contract with generalized density number  0.
 R6Disp: Adding dispersion energy 1st derivatives to the gradient.
 Leave Link  701 at Wed May  3 10:14:57 2017, MaxMem=   33554432 cpu:       1.6
 (Enter /share/apps/gaussian09/g09/l702.exe)
 L702 exits ... SP integral derivatives will be done elsewhere.
 Leave Link  702 at Wed May  3 10:14:57 2017, MaxMem=   33554432 cpu:       0.3
 (Enter /share/apps/gaussian09/g09/l703.exe)
 Compute integral first derivatives, UseDBF=F ICtDFT=           0.
 Integral derivatives from FoFDir, PRISM(SPDF).
 Calling FoFJK, ICntrl=      2127 FMM=F ISym2X=0 I1Cent= 0 IOpClX= 0 NMat=1 NMatS=1 NMatT=0.
 FoFJK:  IHMeth= 1 ICntrl=  2127 DoSepK=T KAlg= 1 I1Cent= 0 FoldK=F
 FoFCou: FMM=F IPFlag=           0 FMFlag=      100000 FMFlg1=         800
         NFxFlg=           0 DoJE=F BraDBF=F KetDBF=F FulRan=T
         Omega=  0.000000  0.000000  1.000000  0.000000  0.000000 ICntrl=    2527 IOpCl=  0
         NMat0=    1 NMatS0=    1 NMatT0=    0 NMatD0=    1 NMtDS0=    0 NMtDT0=    0
         I1Cent=           0 NGrid=           0.
 Symmetry not used in FoFCou.
 Leave Link  703 at Wed May  3 10:14:59 2017, MaxMem=   33554432 cpu:      14.0
 (Enter /share/apps/gaussian09/g09/l716.exe)
 Dipole        = 2.14671308D-02 3.18050176D-02-6.43625752D-06
 -------------------------------------------------------------------
 Center     Atomic                   Forces (Hartrees/Bohr)
 Number     Number              X              Y              Z
 -------------------------------------------------------------------
      1        6          -0.019703429    0.004759130   -0.000013088
      2        6           0.012797239    0.018970626   -0.000003303
      3        1           0.002080377   -0.015273519    0.000003767
      4        1           0.003495250    0.007088775    0.012416744
      5        1           0.003498165    0.007091079   -0.012408245
      6        6           0.011760651   -0.016622711   -0.000001934
      7        1          -0.004745014   -0.007062950    0.014457069
      8        1          -0.004748532   -0.007061340   -0.014453339
      9        1          -0.014936067   -0.003631236    0.000001678
     10        1           0.005250625    0.005871047   -0.012395756
     11        1           0.005250735    0.005871099    0.012396408
 -------------------------------------------------------------------
 Cartesian Forces:  Max     0.019703429 RMS     0.009924390
 Leave Link  716 at Wed May  3 10:14:59 2017, MaxMem=   33554432 cpu:       0.3
 (Enter /share/apps/gaussian09/g09/l103.exe)

 GradGradGradGradGradGradGradGradGradGradGradGradGradGradGradGradGradGrad
 Berny optimization.
 Internal  Forces:  Max     0.016683042 RMS     0.006912263
 Search for a local minimum.
 Step number   1 out of a maximum of   56
 All quantities printed in internal units (Hartrees-Bohrs-Radians)
 RMS Force = .69123D-02 SwitMx=.10000D-02 MixMth= 1
 Mixed Optimization -- RFO/linear search
 Second derivative matrix not updated -- first step.
 ITU=  0
     Eigenvalues ---    0.00671   0.00672   0.03867   0.05086   0.05799
     Eigenvalues ---    0.05800   0.05812   0.05812   0.08336   0.12168
     Eigenvalues ---    0.16000   0.16000   0.16000   0.16000   0.16000
     Eigenvalues ---    0.16000   0.21907   0.31326   0.31326   0.31639
     Eigenvalues ---    0.31641   0.31878   0.31879   0.31881   0.31882
     Eigenvalues ---    0.31910   0.31912
 RFO step:  Lambda=-7.16409924D-03 EMin= 6.71366645D-03
 Linear search not attempted -- first point.
 Iteration  1 RMS(Cart)=  0.03160019 RMS(Int)=  0.00026186
 Iteration  2 RMS(Cart)=  0.00032589 RMS(Int)=  0.00007005
 Iteration  3 RMS(Cart)=  0.00000006 RMS(Int)=  0.00007005
 Variable       Old X    -DE/DX   Delta X   Delta X   Delta X     New X
                                 (Linear)    (Quad)   (Total)
    R1        2.84810   0.01063   0.00000   0.03285   0.03285   2.88095
    R2        2.11009  -0.01504   0.00000  -0.04609  -0.04609   2.06400
    R3        2.11063  -0.01461   0.00000  -0.04483  -0.04483   2.06580
    R4        2.11061  -0.01461   0.00000  -0.04481  -0.04481   2.06579
    R5        2.84806   0.01062   0.00000   0.03284   0.03284   2.88090
    R6        2.12095  -0.01668   0.00000  -0.05207  -0.05207   2.06888
    R7        2.12094  -0.01668   0.00000  -0.05206  -0.05206   2.06888
    R8        2.11005  -0.01502   0.00000  -0.04603  -0.04603   2.06402
    R9        2.11066  -0.01458   0.00000  -0.04473  -0.04473   2.06593
   R10        2.11067  -0.01458   0.00000  -0.04474  -0.04474   2.06593
    A1        1.92741   0.00431   0.00000   0.02748   0.02732   1.95473
    A2        1.93087   0.00136   0.00000   0.00726   0.00718   1.93805
    A3        1.93096   0.00135   0.00000   0.00719   0.00711   1.93807
    A4        1.89226  -0.00272   0.00000  -0.01458  -0.01473   1.87753
    A5        1.89233  -0.00272   0.00000  -0.01463  -0.01478   1.87756
    A6        1.88882  -0.00185   0.00000  -0.01439  -0.01439   1.87443
    A7        1.95131   0.00441   0.00000   0.02458   0.02448   1.97579
    A8        1.91058  -0.00106   0.00000  -0.00179  -0.00188   1.90871
    A9        1.91065  -0.00107   0.00000  -0.00184  -0.00192   1.90873
   A10        1.91072  -0.00110   0.00000  -0.00219  -0.00228   1.90844
   A11        1.91073  -0.00110   0.00000  -0.00220  -0.00229   1.90844
   A12        1.86796  -0.00029   0.00000  -0.01846  -0.01851   1.84946
   A13        1.92749   0.00416   0.00000   0.02657   0.02642   1.95391
   A14        1.93084   0.00136   0.00000   0.00726   0.00718   1.93802
   A15        1.93084   0.00135   0.00000   0.00725   0.00718   1.93802
   A16        1.89232  -0.00265   0.00000  -0.01420  -0.01434   1.87798
   A17        1.89230  -0.00264   0.00000  -0.01419  -0.01433   1.87797
   A18        1.88887  -0.00185   0.00000  -0.01434  -0.01433   1.87453
    D1       -3.14154   0.00000   0.00000  -0.00004  -0.00004  -3.14158
    D2       -1.02122   0.00079   0.00000   0.01218   0.01218  -1.00904
    D3        1.02127  -0.00079   0.00000  -0.01222  -0.01223   1.00904
    D4       -1.04653   0.00028   0.00000   0.00431   0.00435  -1.04218
    D5        1.07378   0.00107   0.00000   0.01653   0.01658   1.09037
    D6        3.11628  -0.00051   0.00000  -0.00786  -0.00783   3.10845
    D7        1.04648  -0.00028   0.00000  -0.00430  -0.00434   1.04214
    D8       -3.11639   0.00051   0.00000   0.00792   0.00789  -3.10850
    D9       -1.07389  -0.00107   0.00000  -0.01647  -0.01652  -1.09042
   D10        3.14154   0.00000   0.00000   0.00003   0.00003   3.14156
   D11       -1.04653   0.00028   0.00000   0.00427   0.00431  -1.04222
   D12        1.04644  -0.00028   0.00000  -0.00423  -0.00427   1.04217
   D13        1.02130  -0.00081   0.00000  -0.01242  -0.01242   1.00887
   D14        3.11641  -0.00053   0.00000  -0.00818  -0.00814   3.10827
   D15       -1.07380  -0.00109   0.00000  -0.01668  -0.01672  -1.09052
   D16       -1.02132   0.00081   0.00000   0.01241   0.01242  -1.00890
   D17        1.07380   0.00109   0.00000   0.01666   0.01670   1.09050
   D18       -3.11641   0.00053   0.00000   0.00816   0.00812  -3.10829
         Item               Value     Threshold  Converged?
 Maximum Force            0.016683     0.000450     NO 
 RMS     Force            0.006912     0.000300     NO 
 Maximum Displacement     0.071389     0.001800     NO 
 RMS     Displacement     0.031488     0.001200     NO 
 Predicted change in Energy=-3.674994D-03
 GradGradGradGradGradGradGradGradGradGradGradGradGradGradGradGradGradGrad

 Leave Link  103 at Wed May  3 10:14:59 2017, MaxMem=   33554432 cpu:       0.1
 (Enter /share/apps/gaussian09/g09/l202.exe)
                          Input orientation:                          
 ---------------------------------------------------------------------
 Center     Atomic      Atomic             Coordinates (Angstroms)
 Number     Number       Type             X           Y           Z
 ---------------------------------------------------------------------
      1          6           0       -1.751333    2.109818   -0.000016
      2          6           0       -0.226914    2.091069   -0.000018
      3          1           0       -2.147963    3.127477    0.000017
      4          1           0       -2.150137    1.600150   -0.881052
      5          1           0       -2.150160    1.600056    0.880951
      6          6           0        0.356487    0.682610   -0.000076
      7          1           0        0.142771    2.636786   -0.874160
      8          1           0        0.142798    2.636726    0.874150
      9          1           0        1.448668    0.693080   -0.000104
     10          1           0        0.031293    0.123033    0.881005
     11          1           0        0.031251    0.123092   -0.881178
 ---------------------------------------------------------------------
                    Distance matrix (angstroms):
                    1          2          3          4          5
     1  C    0.000000
     2  C    1.524533   0.000000
     3  H    1.092221   2.182790   0.000000
     4  H    1.093175   2.171637   1.763240   0.000000
     5  H    1.093171   2.171652   1.763255   1.762003   0.000000
     6  C    2.545550   1.524504   3.499950   2.810902   2.810906
     7  H    2.151617   1.094806   2.500485   2.516365   3.068022
     8  H    2.151634   1.094805   2.500506   3.068024   2.516423
     9  H    3.499593   2.182189   4.343046   3.814479   3.814502
    10  H    2.810919   2.171644   3.814706   3.169442   2.634451
    11  H    2.810895   2.171642   3.814684   2.634418   3.169396
                    6          7          8          9         10
     6  C    0.000000
     7  H    2.151396   0.000000
     8  H    2.151395   1.748310   0.000000
     9  H    1.092231   2.499467   2.499476   0.000000
    10  H    1.093243   3.067896   2.516174   1.763593   0.000000
    11  H    1.093243   2.516177   3.067894   1.763590   1.762183
                   11
    11  H    0.000000
 Symmetry turned off by external request.
 Stoichiometry    C3H8
 Framework group  C1[X(C3H8)]
 Deg. of freedom    27
 Full point group                 C1      NOp   1
 Rotational constants (GHZ):     29.7721911      8.4162709      7.4667780
 Leave Link  202 at Wed May  3 10:14:59 2017, MaxMem=   33554432 cpu:       0.0
 (Enter /share/apps/gaussian09/g09/l301.exe)
 Standard basis: TZVP (5D, 7F)
 Ernie: Thresh=  0.10000D-02 Tol=  0.10000D-05 Strict=F.
 Integral buffers will be    131072 words long.
 Raffenetti 2 integral format.
 Two-electron integral symmetry is turned off.
   105 basis functions,   169 primitive gaussians,   108 cartesian basis functions
    13 alpha electrons       13 beta electrons
       nuclear repulsion energy        82.5946469045 Hartrees.
 IExCor= 4639 DFT=T Ex+Corr=wB97XD ExCW=0 ScaHFX=  1.000000
 ScaDFX=  1.000000  1.000000  1.000000  1.000000 ScalE2=  1.000000  1.000000
 IRadAn=      0 IRanWt=     -1 IRanGd=            0 ICorTp=0
  HFx wShort=  0.000000 wLong=  0.200000 cFull=  0.222036 cShort=  0.000000 cLong=  0.777964
  DFx wShort=  0.000000 wLong=  0.200000 cFull=  0.000000 cShort=  0.000000 cLong=  1.000000
 NAtoms=   11 NActive=   11 NUniq=   11 SFac= 1.00D+00 NAtFMM=   60 NAOKFM=F Big=F
 R6Disp: Dispersion energy =        -0.0039926418 Hartrees.
 Nuclear repulsion after empirical dispersion term =       82.5906542627 Hartrees.
 Leave Link  301 at Wed May  3 10:14:59 2017, MaxMem=   33554432 cpu:       0.6
 (Enter /share/apps/gaussian09/g09/l302.exe)
 NPDir=0 NMtPBC=     1 NCelOv=     1 NCel=       1 NClECP=     1 NCelD=      1
         NCelK=      1 NCelE2=     1 NClLst=     1 CellRange=     0.0.
 One-electron integrals computed using PRISM.
 NBasis=   105 RedAO= T  NBF=   105
 NBsUse=   105 1.00D-06 NBFU=   105
 Precomputing XC quadrature grid using
 IXCGrd= 2 IRadAn=           0 IRanWt=          -1 IRanGd=           0 AccXCQ= 0.00D+00.
 NRdTot=     689 NPtTot=       87146 NUsed=       92125 NTot=       92157
 NSgBfM=   108   108   108   108   108 NAtAll=    11    11.
 Leave Link  302 at Wed May  3 10:14:59 2017, MaxMem=   33554432 cpu:       1.8
 (Enter /share/apps/gaussian09/g09/l303.exe)
 DipDrv:  MaxL=1.
 Leave Link  303 at Wed May  3 10:14:59 2017, MaxMem=   33554432 cpu:       0.4
 (Enter /share/apps/gaussian09/g09/l401.exe)
 Initial guess read from the read-write file.
 B after Tr=     0.000000    0.000000    0.000000
         Rot=    1.000000    0.000000    0.000000    0.000000 Ang=   0.00 deg.
 Guess basis will be translated and rotated to current coordinates.
 Generating alternative initial guess.
 Harris functional with IExCor= 4639 diagonalized for initial guess.
 ExpMin= 9.52D-02 ExpMax= 1.36D+04 ExpMxC= 4.63D+02 IAcc=2 IRadAn=         4 AccDes= 0.00D+00
 HarFok:  IExCor= 4639 AccDes= 0.00D+00 IRadAn=         4 IDoV= 1
 ScaDFX=  1.000000  1.000000  1.000000  1.000000
 FoFCou: FMM=F IPFlag=           0 FMFlag=      100000 FMFlg1=           0
         NFxFlg=           0 DoJE=T BraDBF=F KetDBF=T FulRan=T
         Omega=  0.000000  0.000000  1.000000  0.000000  0.000000 ICntrl=     500 IOpCl=  0
         NMat0=    1 NMatS0=    1 NMatT0=    0 NMatD0=    1 NMtDS0=    0 NMtDT0=    0
         I1Cent=           4 NGrid=           0.
 Symmetry not used in FoFCou.
 Harris En= -112.979765473539    
 Leave Link  401 at Wed May  3 10:15:00 2017, MaxMem=   33554432 cpu:       4.3
 (Enter /share/apps/gaussian09/g09/l502.exe)
 Closed shell SCF:
 Requested convergence on RMS density matrix=1.00D-08 within 128 cycles.
 Requested convergence on MAX density matrix=1.00D-06.
 Requested convergence on             energy=1.00D-06.
 No special actions if energy rises.
 Using DIIS extrapolation, IDIIS=  1040.
 Two-electron integral symmetry not used.
        92013 words used for storage of precomputed grid.
 IEnd=      146685 IEndB=      146685 NGot=    33554432 MDV=    33436160
 LenX=    33436160 LenY=    33424055
 Fock matrices will be formed incrementally for  20 cycles.
 Integral accuracy reduced to 1.0D-05 until final iterations.

 Cycle   1  Pass 0  IDiag  1:
 FoFJK:  IHMeth= 1 ICntrl=     0 DoSepK=T KAlg= 1 I1Cent= 0 FoldK=F
 FoFCou: FMM=F IPFlag=           0 FMFlag=      100000 FMFlg1=           0
         NFxFlg=           0 DoJE=T BraDBF=F KetDBF=F FulRan=T
         Omega=  0.000000  0.000000  1.000000  0.000000  0.000000 ICntrl=     500 IOpCl=  0
         NMat0=    1 NMatS0=    1 NMatT0=    0 NMatD0=    1 NMtDS0=    0 NMtDT0=    0
         I1Cent=           0 NGrid=           0.
 Symmetry not used in FoFCou.
 E= -119.145695015524    
 DIIS: error= 3.03D-03 at cycle   1 NSaved=   1.
 NSaved= 1 IEnMin= 1 EnMin= -119.145695015524     IErMin= 1 ErrMin= 3.03D-03
 ErrMax= 3.03D-03 EMaxC= 1.00D-01 BMatC= 9.63D-04 BMatP= 9.63D-04
 IDIUse=3 WtCom= 9.70D-01 WtEn= 3.03D-02
 Coeff-Com:  0.100D+01
 Coeff-En:   0.100D+01
 Coeff:      0.100D+01
 Gap=     0.532 Goal=   None    Shift=    0.000
 GapD=    0.532 DampG=2.000 DampE=1.000 DampFc=2.0000 IDamp=-1.
 RMSDP=2.82D-04 MaxDP=3.57D-03              OVMax= 9.89D-03

 Cycle   2  Pass 0  IDiag  1:
 RMSU=  1.99D-04    CP:  9.99D-01
 FoFJK:  IHMeth= 1 ICntrl=     0 DoSepK=T KAlg= 1 I1Cent= 0 FoldK=F
 E= -119.146630615938     Delta-E=       -0.000935600414 Rises=F Damp=F
 DIIS: error= 1.11D-03 at cycle   2 NSaved=   2.
 NSaved= 2 IEnMin= 2 EnMin= -119.146630615938     IErMin= 2 ErrMin= 1.11D-03
 ErrMax= 1.11D-03 EMaxC= 1.00D-01 BMatC= 7.25D-05 BMatP= 9.63D-04
 IDIUse=3 WtCom= 9.89D-01 WtEn= 1.11D-02
 Coeff-Com:  0.863D-01 0.914D+00
 Coeff-En:   0.000D+00 0.100D+01
 Coeff:      0.853D-01 0.915D+00
 Gap=     0.521 Goal=   None    Shift=    0.000
 RMSDP=7.18D-05 MaxDP=1.58D-03 DE=-9.36D-04 OVMax= 2.43D-03

 Cycle   3  Pass 0  IDiag  1:
 RMSU=  4.97D-05    CP:  9.98D-01  9.81D-01
 FoFJK:  IHMeth= 1 ICntrl=     0 DoSepK=T KAlg= 1 I1Cent= 0 FoldK=F
 E= -119.146681896732     Delta-E=       -0.000051280794 Rises=F Damp=F
 DIIS: error= 6.37D-04 at cycle   3 NSaved=   3.
 NSaved= 3 IEnMin= 3 EnMin= -119.146681896732     IErMin= 3 ErrMin= 6.37D-04
 ErrMax= 6.37D-04 EMaxC= 1.00D-01 BMatC= 2.04D-05 BMatP= 7.25D-05
 IDIUse=3 WtCom= 9.94D-01 WtEn= 6.37D-03
 Coeff-Com: -0.179D-01 0.328D+00 0.690D+00
 Coeff-En:   0.000D+00 0.140D-01 0.986D+00
 Coeff:     -0.178D-01 0.326D+00 0.691D+00
 Gap=     0.522 Goal=   None    Shift=    0.000
 RMSDP=3.09D-05 MaxDP=5.03D-04 DE=-5.13D-05 OVMax= 1.19D-03

 Cycle   4  Pass 0  IDiag  1:
 RMSU=  1.46D-05    CP:  9.99D-01  1.04D+00  7.97D-01
 FoFJK:  IHMeth= 1 ICntrl=     0 DoSepK=T KAlg= 1 I1Cent= 0 FoldK=F
 E= -119.146701801120     Delta-E=       -0.000019904388 Rises=F Damp=F
 DIIS: error= 7.79D-05 at cycle   4 NSaved=   4.
 NSaved= 4 IEnMin= 4 EnMin= -119.146701801120     IErMin= 4 ErrMin= 7.79D-05
 ErrMax= 7.79D-05 EMaxC= 1.00D-01 BMatC= 4.59D-07 BMatP= 2.04D-05
 IDIUse=1 WtCom= 1.00D+00 WtEn= 0.00D+00
 Coeff-Com: -0.646D-02-0.269D-02 0.112D+00 0.897D+00
 Coeff:     -0.646D-02-0.269D-02 0.112D+00 0.897D+00
 Gap=     0.522 Goal=   None    Shift=    0.000
 RMSDP=9.27D-06 MaxDP=7.58D-05 DE=-1.99D-05 OVMax= 3.47D-04

 Initial convergence to 1.0D-05 achieved.  Increase integral accuracy.
 Cycle   5  Pass 1  IDiag  1:
 FoFJK:  IHMeth= 1 ICntrl=     0 DoSepK=T KAlg= 1 I1Cent= 0 FoldK=F
 E= -119.146387601177     Delta-E=        0.000314199943 Rises=F Damp=F
 DIIS: error= 1.32D-04 at cycle   1 NSaved=   1.
 NSaved= 1 IEnMin= 1 EnMin= -119.146387601177     IErMin= 1 ErrMin= 1.32D-04
 ErrMax= 1.32D-04 EMaxC= 1.00D-01 BMatC= 1.82D-06 BMatP= 1.82D-06
 IDIUse=3 WtCom= 9.99D-01 WtEn= 1.32D-03
 Coeff-Com:  0.100D+01
 Coeff-En:   0.100D+01
 Coeff:      0.100D+01
 Gap=     0.522 Goal=   None    Shift=    0.000
 RMSDP=9.27D-06 MaxDP=7.58D-05 DE= 3.14D-04 OVMax= 2.43D-04

 Cycle   6  Pass 1  IDiag  1:
 RMSU=  1.34D-05    CP:  1.00D+00
 FoFJK:  IHMeth= 1 ICntrl=     0 DoSepK=T KAlg= 1 I1Cent= 0 FoldK=F
 E= -119.146388923124     Delta-E=       -0.000001321947 Rises=F Damp=F
 DIIS: error= 2.12D-05 at cycle   2 NSaved=   2.
 NSaved= 2 IEnMin= 2 EnMin= -119.146388923124     IErMin= 2 ErrMin= 2.12D-05
 ErrMax= 2.12D-05 EMaxC= 1.00D-01 BMatC= 2.09D-08 BMatP= 1.82D-06
 IDIUse=1 WtCom= 1.00D+00 WtEn= 0.00D+00
 Coeff-Com: -0.579D-01 0.106D+01
 Coeff:     -0.579D-01 0.106D+01
 Gap=     0.522 Goal=   None    Shift=    0.000
 RMSDP=2.54D-06 MaxDP=2.47D-05 DE=-1.32D-06 OVMax= 6.71D-05

 Cycle   7  Pass 1  IDiag  1:
 RMSU=  1.41D-06    CP:  1.00D+00  1.08D+00
 FoFJK:  IHMeth= 1 ICntrl=     0 DoSepK=T KAlg= 1 I1Cent= 0 FoldK=F
 E= -119.146388952533     Delta-E=       -0.000000029409 Rises=F Damp=F
 DIIS: error= 5.88D-06 at cycle   3 NSaved=   3.
 NSaved= 3 IEnMin= 3 EnMin= -119.146388952533     IErMin= 3 ErrMin= 5.88D-06
 ErrMax= 5.88D-06 EMaxC= 1.00D-01 BMatC= 2.01D-09 BMatP= 2.09D-08
 IDIUse=1 WtCom= 1.00D+00 WtEn= 0.00D+00
 Coeff-Com: -0.177D-01 0.184D+00 0.834D+00
 Coeff:     -0.177D-01 0.184D+00 0.834D+00
 Gap=     0.522 Goal=   None    Shift=    0.000
 RMSDP=5.81D-07 MaxDP=6.54D-06 DE=-2.94D-08 OVMax= 1.75D-05

 Cycle   8  Pass 1  IDiag  1:
 RMSU=  3.74D-07    CP:  1.00D+00  1.09D+00  1.10D+00
 FoFJK:  IHMeth= 1 ICntrl=     0 DoSepK=T KAlg= 1 I1Cent= 0 FoldK=F
 E= -119.146388954828     Delta-E=       -0.000000002295 Rises=F Damp=F
 DIIS: error= 2.20D-06 at cycle   4 NSaved=   4.
 NSaved= 4 IEnMin= 4 EnMin= -119.146388954828     IErMin= 4 ErrMin= 2.20D-06
 ErrMax= 2.20D-06 EMaxC= 1.00D-01 BMatC= 3.63D-10 BMatP= 2.01D-09
 IDIUse=1 WtCom= 1.00D+00 WtEn= 0.00D+00
 Coeff-Com: -0.791D-03-0.349D-01 0.240D+00 0.795D+00
 Coeff:     -0.791D-03-0.349D-01 0.240D+00 0.795D+00
 Gap=     0.522 Goal=   None    Shift=    0.000
 RMSDP=2.53D-07 MaxDP=2.95D-06 DE=-2.29D-09 OVMax= 7.67D-06

 Cycle   9  Pass 1  IDiag  1:
 RMSU=  9.39D-08    CP:  1.00D+00  1.09D+00  1.20D+00  1.05D+00
 FoFJK:  IHMeth= 1 ICntrl=     0 DoSepK=T KAlg= 1 I1Cent= 0 FoldK=F
 E= -119.146388955246     Delta-E=       -0.000000000418 Rises=F Damp=F
 DIIS: error= 7.11D-07 at cycle   5 NSaved=   5.
 NSaved= 5 IEnMin= 5 EnMin= -119.146388955246     IErMin= 5 ErrMin= 7.11D-07
 ErrMax= 7.11D-07 EMaxC= 1.00D-01 BMatC= 2.16D-11 BMatP= 3.63D-10
 IDIUse=1 WtCom= 1.00D+00 WtEn= 0.00D+00
 Coeff-Com:  0.145D-02-0.236D-01-0.133D-01 0.189D+00 0.847D+00
 Coeff:      0.145D-02-0.236D-01-0.133D-01 0.189D+00 0.847D+00
 Gap=     0.522 Goal=   None    Shift=    0.000
 RMSDP=1.06D-07 MaxDP=1.31D-06 DE=-4.18D-10 OVMax= 2.44D-06

 Cycle  10  Pass 1  IDiag  1:
 RMSU=  3.61D-08    CP:  1.00D+00  1.09D+00  1.24D+00  1.15D+00  1.13D+00
 FoFJK:  IHMeth= 1 ICntrl=     0 DoSepK=T KAlg= 1 I1Cent= 0 FoldK=F
 E= -119.146388955279     Delta-E=       -0.000000000033 Rises=F Damp=F
 DIIS: error= 7.37D-08 at cycle   6 NSaved=   6.
 NSaved= 6 IEnMin= 6 EnMin= -119.146388955279     IErMin= 6 ErrMin= 7.37D-08
 ErrMax= 7.37D-08 EMaxC= 1.00D-01 BMatC= 6.77D-13 BMatP= 2.16D-11
 IDIUse=1 WtCom= 1.00D+00 WtEn= 0.00D+00
 Coeff-Com:  0.830D-04 0.118D-02-0.142D-01-0.431D-01 0.379D-01 0.102D+01
 Coeff:      0.830D-04 0.118D-02-0.142D-01-0.431D-01 0.379D-01 0.102D+01
 Gap=     0.522 Goal=   None    Shift=    0.000
 RMSDP=3.28D-08 MaxDP=4.18D-07 DE=-3.31D-11 OVMax= 7.08D-07

 Cycle  11  Pass 1  IDiag  1:
 RMSU=  5.56D-09    CP:  1.00D+00  1.09D+00  1.25D+00  1.18D+00  1.24D+00
                    CP:  1.17D+00
 FoFJK:  IHMeth= 1 ICntrl=     0 DoSepK=T KAlg= 1 I1Cent= 0 FoldK=F
 E= -119.146388955281     Delta-E=       -0.000000000001 Rises=F Damp=F
 DIIS: error= 2.13D-08 at cycle   7 NSaved=   7.
 NSaved= 7 IEnMin= 7 EnMin= -119.146388955281     IErMin= 7 ErrMin= 2.13D-08
 ErrMax= 2.13D-08 EMaxC= 1.00D-01 BMatC= 3.70D-14 BMatP= 6.77D-13
 IDIUse=1 WtCom= 1.00D+00 WtEn= 0.00D+00
 Coeff-Com: -0.209D-04 0.938D-03-0.328D-02-0.154D-01-0.169D-01 0.236D+00
 Coeff-Com:  0.798D+00
 Coeff:     -0.209D-04 0.938D-03-0.328D-02-0.154D-01-0.169D-01 0.236D+00
 Coeff:      0.798D+00
 Gap=     0.522 Goal=   None    Shift=    0.000
 RMSDP=5.30D-09 MaxDP=8.02D-08 DE=-1.48D-12 OVMax= 9.97D-08

 SCF Done:  E(RwB97XD) =  -119.146388955     A.U. after   11 cycles
             Convg  =    0.5303D-08             -V/T =  2.0061
 KE= 1.184281668185D+02 PE=-4.403583071330D+02 EE= 1.201930970965D+02
 Leave Link  502 at Wed May  3 10:15:08 2017, MaxMem=   33554432 cpu:      62.0
 (Enter /share/apps/gaussian09/g09/l701.exe)
 Compute integral first derivatives.
 ... and contract with generalized density number  0.
 R6Disp: Adding dispersion energy 1st derivatives to the gradient.
 Leave Link  701 at Wed May  3 10:15:08 2017, MaxMem=   33554432 cpu:       1.6
 (Enter /share/apps/gaussian09/g09/l702.exe)
 L702 exits ... SP integral derivatives will be done elsewhere.
 Leave Link  702 at Wed May  3 10:15:08 2017, MaxMem=   33554432 cpu:       0.3
 (Enter /share/apps/gaussian09/g09/l703.exe)
 Compute integral first derivatives, UseDBF=F ICtDFT=           0.
 Integral derivatives from FoFDir, PRISM(SPDF).
 Calling FoFJK, ICntrl=      2127 FMM=F ISym2X=0 I1Cent= 0 IOpClX= 0 NMat=1 NMatS=1 NMatT=0.
 FoFJK:  IHMeth= 1 ICntrl=  2127 DoSepK=T KAlg= 1 I1Cent= 0 FoldK=F
 FoFCou: FMM=F IPFlag=           0 FMFlag=      100000 FMFlg1=         800
         NFxFlg=           0 DoJE=F BraDBF=F KetDBF=F FulRan=T
         Omega=  0.000000  0.000000  1.000000  0.000000  0.000000 ICntrl=    2527 IOpCl=  0
         NMat0=    1 NMatS0=    1 NMatT0=    0 NMatD0=    1 NMtDS0=    0 NMtDT0=    0
         I1Cent=           0 NGrid=           0.
 Symmetry not used in FoFCou.
 Leave Link  703 at Wed May  3 10:15:10 2017, MaxMem=   33554432 cpu:      13.9
 (Enter /share/apps/gaussian09/g09/l716.exe)
 Dipole        = 1.80436464D-02 2.67581821D-02-3.16025471D-06
 -------------------------------------------------------------------
 Center     Atomic                   Forces (Hartrees/Bohr)
 Number     Number              X              Y              Z
 -------------------------------------------------------------------
      1        6          -0.000939547   -0.001245197   -0.000003883
      2        6           0.001582556    0.002477628   -0.000001013
      3        1           0.000941758   -0.000052321    0.000001569
      4        1           0.000241946   -0.000063818   -0.000027549
      5        1           0.000241789   -0.000063226    0.000029979
      6        6          -0.000768323   -0.001434614   -0.000000611
      7        1          -0.000282121   -0.000463280    0.000355331
      8        1          -0.000283242   -0.000462901   -0.000354287
      9        1          -0.000399396    0.000878103    0.000000342
     10        1          -0.000167637    0.000214839    0.000017803
     11        1          -0.000167782    0.000214787   -0.000017681
 -------------------------------------------------------------------
 Cartesian Forces:  Max     0.002477628 RMS     0.000710558
 Leave Link  716 at Wed May  3 10:15:10 2017, MaxMem=   33554432 cpu:       0.3
 (Enter /share/apps/gaussian09/g09/l103.exe)

 GradGradGradGradGradGradGradGradGradGradGradGradGradGradGradGradGradGrad
 Berny optimization.
 Using GEDIIS/GDIIS optimizer.
 Internal  Forces:  Max     0.001945355 RMS     0.000497580
 Search for a local minimum.
 Step number   2 out of a maximum of   56
 All quantities printed in internal units (Hartrees-Bohrs-Radians)
 RMS Force = .49758D-03 SwitMx=.10000D-02 MixMth= 2
 Mixed Optimization -- En-DIIS/RFO-DIIS
 Update second derivatives using D2CorX and points    1    2
 DE= -3.59D-03 DEPred=-3.67D-03 R= 9.76D-01
 SS=  1.41D+00  RLast= 1.60D-01 DXNew= 5.0454D-01 4.8143D-01
 Trust test= 9.76D-01 RLast= 1.60D-01 DXMaxT set to 4.81D-01
 ITU=  1  0
 Use linear search instead of GDIIS.
     Eigenvalues ---    0.00671   0.00672   0.03705   0.05089   0.05605
     Eigenvalues ---    0.05610   0.05721   0.05735   0.08597   0.12361
     Eigenvalues ---    0.15989   0.16000   0.16000   0.16000   0.16000
     Eigenvalues ---    0.16451   0.22078   0.30682   0.31326   0.31639
     Eigenvalues ---    0.31656   0.31859   0.31879   0.31880   0.31881
     Eigenvalues ---    0.31911   0.32361
 RFO step:  Lambda=-5.98625483D-05 EMin= 6.71366645D-03
 Quartic linear search produced a step of -0.01483.
 Iteration  1 RMS(Cart)=  0.00549152 RMS(Int)=  0.00000932
 Iteration  2 RMS(Cart)=  0.00001416 RMS(Int)=  0.00000256
 Iteration  3 RMS(Cart)=  0.00000000 RMS(Int)=  0.00000256
 Variable       Old X    -DE/DX   Delta X   Delta X   Delta X     New X
                                 (Linear)    (Quad)   (Total)
    R1        2.88095  -0.00050  -0.00049  -0.00072  -0.00121   2.87974
    R2        2.06400  -0.00039   0.00068  -0.00237  -0.00169   2.06231
    R3        2.06580  -0.00003   0.00066  -0.00123  -0.00057   2.06523
    R4        2.06579  -0.00003   0.00066  -0.00123  -0.00056   2.06523
    R5        2.88090  -0.00046  -0.00049  -0.00062  -0.00110   2.87979
    R6        2.06888  -0.00061   0.00077  -0.00323  -0.00246   2.06643
    R7        2.06888  -0.00061   0.00077  -0.00323  -0.00245   2.06643
    R8        2.06402  -0.00039   0.00068  -0.00236  -0.00167   2.06234
    R9        2.06593  -0.00005   0.00066  -0.00127  -0.00061   2.06532
   R10        2.06593  -0.00005   0.00066  -0.00127  -0.00061   2.06532
    A1        1.95473  -0.00113  -0.00041  -0.00677  -0.00717   1.94756
    A2        1.93805  -0.00008  -0.00011  -0.00006  -0.00016   1.93788
    A3        1.93807  -0.00008  -0.00011  -0.00008  -0.00018   1.93789
    A4        1.87753   0.00059   0.00022   0.00277   0.00299   1.88052
    A5        1.87756   0.00059   0.00022   0.00275   0.00296   1.88052
    A6        1.87443   0.00020   0.00021   0.00188   0.00209   1.87652
    A7        1.97579  -0.00195  -0.00036  -0.00940  -0.00977   1.96602
    A8        1.90871   0.00057   0.00003   0.00195   0.00197   1.91068
    A9        1.90873   0.00057   0.00003   0.00193   0.00195   1.91068
   A10        1.90844   0.00055   0.00003   0.00162   0.00165   1.91009
   A11        1.90844   0.00055   0.00003   0.00162   0.00165   1.91009
   A12        1.84946  -0.00018   0.00027   0.00312   0.00338   1.85284
   A13        1.95391  -0.00117  -0.00039  -0.00702  -0.00742   1.94649
   A14        1.93802  -0.00010  -0.00011  -0.00015  -0.00026   1.93776
   A15        1.93802  -0.00010  -0.00011  -0.00015  -0.00025   1.93776
   A16        1.87798   0.00062   0.00021   0.00295   0.00316   1.88114
   A17        1.87797   0.00062   0.00021   0.00296   0.00317   1.88114
   A18        1.87453   0.00021   0.00021   0.00193   0.00214   1.87667
    D1       -3.14158   0.00000   0.00000  -0.00001  -0.00001   3.14159
    D2       -1.00904  -0.00021  -0.00018  -0.00296  -0.00314  -1.01218
    D3        1.00904   0.00021   0.00018   0.00295   0.00313   1.01217
    D4       -1.04218  -0.00007  -0.00006  -0.00113  -0.00119  -1.04337
    D5        1.09037  -0.00029  -0.00025  -0.00407  -0.00432   1.08605
    D6        3.10845   0.00014   0.00012   0.00183   0.00195   3.11040
    D7        1.04214   0.00007   0.00006   0.00114   0.00121   1.04335
    D8       -3.10850  -0.00014  -0.00012  -0.00180  -0.00192  -3.11042
    D9       -1.09042   0.00029   0.00025   0.00410   0.00435  -1.08607
   D10        3.14156   0.00000   0.00000   0.00002   0.00002   3.14158
   D11       -1.04222  -0.00007  -0.00006  -0.00110  -0.00117  -1.04339
   D12        1.04217   0.00007   0.00006   0.00113   0.00119   1.04336
   D13        1.00887   0.00020   0.00018   0.00277   0.00296   1.01183
   D14        3.10827   0.00012   0.00012   0.00165   0.00178   3.11005
   D15       -1.09052   0.00027   0.00025   0.00388   0.00413  -1.08639
   D16       -1.00890  -0.00020  -0.00018  -0.00277  -0.00295  -1.01185
   D17        1.09050  -0.00027  -0.00025  -0.00389  -0.00413   1.08637
   D18       -3.10829  -0.00013  -0.00012  -0.00166  -0.00178  -3.11006
         Item               Value     Threshold  Converged?
 Maximum Force            0.001945     0.000450     NO 
 RMS     Force            0.000498     0.000300     NO 
 Maximum Displacement     0.012625     0.001800     NO 
 RMS     Displacement     0.005503     0.001200     NO 
 Predicted change in Energy=-3.096124D-05
 GradGradGradGradGradGradGradGradGradGradGradGradGradGradGradGradGradGrad

 Leave Link  103 at Wed May  3 10:15:10 2017, MaxMem=   33554432 cpu:       0.1
 (Enter /share/apps/gaussian09/g09/l202.exe)
                          Input orientation:                          
 ---------------------------------------------------------------------
 Center     Atomic      Atomic             Coordinates (Angstroms)
 Number     Number       Type             X           Y           Z
 ---------------------------------------------------------------------
      1          6           0       -1.748523    2.105717   -0.000021
      2          6           0       -0.224673    2.094428   -0.000024
      3          1           0       -2.142506    3.123446    0.000022
      4          1           0       -2.144547    1.595259   -0.881480
      5          1           0       -2.144548    1.595180    0.881391
      6          6           0        0.351630    0.683679   -0.000078
      7          1           0        0.143913    2.638168   -0.874237
      8          1           0        0.143921    2.638104    0.874224
      9          1           0        1.442894    0.696910   -0.000093
     10          1           0        0.024612    0.126474    0.881430
     11          1           0        0.024588    0.126533   -0.881616
 ---------------------------------------------------------------------
                    Distance matrix (angstroms):
                    1          2          3          4          5
     1  C    0.000000
     2  C    1.523892   0.000000
     3  H    1.091327   2.176456   0.000000
     4  H    1.092874   2.170726   1.764201   0.000000
     5  H    1.092873   2.170729   1.764204   1.762871   0.000000
     6  C    2.536303   1.523921   3.489008   2.799776   2.799773
     7  H    2.151528   1.093506   2.495502   2.514907   3.067101
     8  H    2.151531   1.093506   2.495503   3.067101   2.514923
     9  H    3.488536   2.175738   4.329339   3.801790   3.801795
    10  H    2.799708   2.170702   3.801989   3.157599   2.619609
    11  H    2.799697   2.170701   3.801982   2.619600   3.157574
                    6          7          8          9         10
     6  C    0.000000
     7  H    2.151122   0.000000
     8  H    2.151121   1.748461   0.000000
     9  H    1.091345   2.493985   2.493992   0.000000
    10  H    1.092921   3.066791   2.514472   1.764654   0.000000
    11  H    1.092921   2.514478   3.066790   1.764654   1.763046
                   11
    11  H    0.000000
 Symmetry turned off by external request.
 Stoichiometry    C3H8
 Framework group  C1[X(C3H8)]
 Deg. of freedom    27
 Full point group                 C1      NOp   1
 Rotational constants (GHZ):     29.6018057      8.4751327      7.5029186
 Leave Link  202 at Wed May  3 10:15:10 2017, MaxMem=   33554432 cpu:       0.0
 (Enter /share/apps/gaussian09/g09/l301.exe)
 Standard basis: TZVP (5D, 7F)
 Ernie: Thresh=  0.10000D-02 Tol=  0.10000D-05 Strict=F.
 Integral buffers will be    131072 words long.
 Raffenetti 2 integral format.
 Two-electron integral symmetry is turned off.
   105 basis functions,   169 primitive gaussians,   108 cartesian basis functions
    13 alpha electrons       13 beta electrons
       nuclear repulsion energy        82.6895098885 Hartrees.
 IExCor= 4639 DFT=T Ex+Corr=wB97XD ExCW=0 ScaHFX=  1.000000
 ScaDFX=  1.000000  1.000000  1.000000  1.000000 ScalE2=  1.000000  1.000000
 IRadAn=      0 IRanWt=     -1 IRanGd=            0 ICorTp=0
  HFx wShort=  0.000000 wLong=  0.200000 cFull=  0.222036 cShort=  0.000000 cLong=  0.777964
  DFx wShort=  0.000000 wLong=  0.200000 cFull=  0.000000 cShort=  0.000000 cLong=  1.000000
 NAtoms=   11 NActive=   11 NUniq=   11 SFac= 1.00D+00 NAtFMM=   60 NAOKFM=F Big=F
 R6Disp: Dispersion energy =        -0.0040046274 Hartrees.
 Nuclear repulsion after empirical dispersion term =       82.6855052611 Hartrees.
 Leave Link  301 at Wed May  3 10:15:10 2017, MaxMem=   33554432 cpu:       0.6
 (Enter /share/apps/gaussian09/g09/l302.exe)
 NPDir=0 NMtPBC=     1 NCelOv=     1 NCel=       1 NClECP=     1 NCelD=      1
         NCelK=      1 NCelE2=     1 NClLst=     1 CellRange=     0.0.
 One-electron integrals computed using PRISM.
 NBasis=   105 RedAO= T  NBF=   105
 NBsUse=   105 1.00D-06 NBFU=   105
 Precomputing XC quadrature grid using
 IXCGrd= 2 IRadAn=           0 IRanWt=          -1 IRanGd=           0 AccXCQ= 0.00D+00.
 NRdTot=     689 NPtTot=       87146 NUsed=       92125 NTot=       92157
 NSgBfM=   108   108   108   108   108 NAtAll=    11    11.
 Leave Link  302 at Wed May  3 10:15:10 2017, MaxMem=   33554432 cpu:       1.8
 (Enter /share/apps/gaussian09/g09/l303.exe)
 DipDrv:  MaxL=1.
 Leave Link  303 at Wed May  3 10:15:10 2017, MaxMem=   33554432 cpu:       0.4
 (Enter /share/apps/gaussian09/g09/l401.exe)
 Initial guess read from the read-write file.
 B after Tr=     0.000000    0.000000    0.000000
         Rot=    1.000000    0.000000    0.000000    0.000000 Ang=   0.00 deg.
 Guess basis will be translated and rotated to current coordinates.
 Leave Link  401 at Wed May  3 10:15:10 2017, MaxMem=   33554432 cpu:       1.2
 (Enter /share/apps/gaussian09/g09/l502.exe)
 Closed shell SCF:
 Requested convergence on RMS density matrix=1.00D-08 within 128 cycles.
 Requested convergence on MAX density matrix=1.00D-06.
 Requested convergence on             energy=1.00D-06.
 No special actions if energy rises.
 Using DIIS extrapolation, IDIIS=  1040.
 Two-electron integral symmetry not used.
        92013 words used for storage of precomputed grid.
 IEnd=      146685 IEndB=      146685 NGot=    33554432 MDV=    33436160
 LenX=    33436160 LenY=    33424055
 Fock matrices will be formed incrementally for  20 cycles.

 Cycle   1  Pass 1  IDiag  1:
 FoFJK:  IHMeth= 1 ICntrl=     0 DoSepK=T KAlg= 1 I1Cent= 0 FoldK=F
 FoFCou: FMM=F IPFlag=           0 FMFlag=      100000 FMFlg1=           0
         NFxFlg=           0 DoJE=T BraDBF=F KetDBF=F FulRan=T
         Omega=  0.000000  0.000000  1.000000  0.000000  0.000000 ICntrl=     500 IOpCl=  0
         NMat0=    1 NMatS0=    1 NMatT0=    0 NMatD0=    1 NMtDS0=    0 NMtDT0=    0
         I1Cent=           0 NGrid=           0.
 Symmetry not used in FoFCou.
 E= -119.146407518689    
 DIIS: error= 3.28D-04 at cycle   1 NSaved=   1.
 NSaved= 1 IEnMin= 1 EnMin= -119.146407518689     IErMin= 1 ErrMin= 3.28D-04
 ErrMax= 3.28D-04 EMaxC= 1.00D-01 BMatC= 8.13D-06 BMatP= 8.13D-06
 IDIUse=3 WtCom= 9.97D-01 WtEn= 3.28D-03
 Coeff-Com:  0.100D+01
 Coeff-En:   0.100D+01
 Coeff:      0.100D+01
 Gap=     0.523 Goal=   None    Shift=    0.000
 RMSDP=2.93D-05 MaxDP=3.95D-04              OVMax= 9.23D-04

 Cycle   2  Pass 1  IDiag  1:
 RMSU=  2.07D-05    CP:  1.00D+00
 FoFJK:  IHMeth= 1 ICntrl=     0 DoSepK=T KAlg= 1 I1Cent= 0 FoldK=F
 E= -119.146417502033     Delta-E=       -0.000009983344 Rises=F Damp=F
 DIIS: error= 9.97D-05 at cycle   2 NSaved=   2.
 NSaved= 2 IEnMin= 2 EnMin= -119.146417502033     IErMin= 2 ErrMin= 9.97D-05
 ErrMax= 9.97D-05 EMaxC= 1.00D-01 BMatC= 3.49D-07 BMatP= 8.13D-06
 IDIUse=1 WtCom= 1.00D+00 WtEn= 0.00D+00
 Coeff-Com: -0.620D-01 0.106D+01
 Coeff:     -0.620D-01 0.106D+01
 Gap=     0.522 Goal=   None    Shift=    0.000
 RMSDP=9.69D-06 MaxDP=1.17D-04 DE=-9.98D-06 OVMax= 4.23D-04

 Cycle   3  Pass 1  IDiag  1:
 RMSU=  5.51D-06    CP:  1.00D+00  1.20D+00
 FoFJK:  IHMeth= 1 ICntrl=     0 DoSepK=T KAlg= 1 I1Cent= 0 FoldK=F
 E= -119.146417973148     Delta-E=       -0.000000471115 Rises=F Damp=F
 DIIS: error= 5.60D-05 at cycle   3 NSaved=   3.
 NSaved= 3 IEnMin= 3 EnMin= -119.146417973148     IErMin= 3 ErrMin= 5.60D-05
 ErrMax= 5.60D-05 EMaxC= 1.00D-01 BMatC= 1.61D-07 BMatP= 3.49D-07
 IDIUse=1 WtCom= 1.00D+00 WtEn= 0.00D+00
 Coeff-Com: -0.626D-01 0.439D+00 0.624D+00
 Coeff:     -0.626D-01 0.439D+00 0.624D+00
 Gap=     0.522 Goal=   None    Shift=    0.000
 RMSDP=2.76D-06 MaxDP=5.16D-05 DE=-4.71D-07 OVMax= 1.19D-04

 Cycle   4  Pass 1  IDiag  1:
 RMSU=  1.71D-06    CP:  1.00D+00  1.23D+00  8.86D-01
 FoFJK:  IHMeth= 1 ICntrl=     0 DoSepK=T KAlg= 1 I1Cent= 0 FoldK=F
 E= -119.146418136470     Delta-E=       -0.000000163322 Rises=F Damp=F
 DIIS: error= 6.99D-06 at cycle   4 NSaved=   4.
 NSaved= 4 IEnMin= 4 EnMin= -119.146418136470     IErMin= 4 ErrMin= 6.99D-06
 ErrMax= 6.99D-06 EMaxC= 1.00D-01 BMatC= 2.32D-09 BMatP= 1.61D-07
 IDIUse=1 WtCom= 1.00D+00 WtEn= 0.00D+00
 Coeff-Com:  0.648D-02-0.104D+00-0.277D-01 0.112D+01
 Coeff:      0.648D-02-0.104D+00-0.277D-01 0.112D+01
 Gap=     0.522 Goal=   None    Shift=    0.000
 RMSDP=1.45D-06 MaxDP=1.96D-05 DE=-1.63D-07 OVMax= 4.04D-05

 Cycle   5  Pass 1  IDiag  1:
 RMSU=  4.15D-07    CP:  1.00D+00  1.24D+00  1.01D+00  1.35D+00
 FoFJK:  IHMeth= 1 ICntrl=     0 DoSepK=T KAlg= 1 I1Cent= 0 FoldK=F
 E= -119.146418141780     Delta-E=       -0.000000005310 Rises=F Damp=F
 DIIS: error= 5.76D-07 at cycle   5 NSaved=   5.
 NSaved= 5 IEnMin= 5 EnMin= -119.146418141780     IErMin= 5 ErrMin= 5.76D-07
 ErrMax= 5.76D-07 EMaxC= 1.00D-01 BMatC= 3.09D-11 BMatP= 2.32D-09
 IDIUse=1 WtCom= 1.00D+00 WtEn= 0.00D+00
 Coeff-Com:  0.135D-02-0.112D-01-0.995D-02 0.423D-01 0.978D+00
 Coeff:      0.135D-02-0.112D-01-0.995D-02 0.423D-01 0.978D+00
 Gap=     0.522 Goal=   None    Shift=    0.000
 RMSDP=2.82D-07 MaxDP=5.17D-06 DE=-5.31D-09 OVMax= 3.66D-06

 Cycle   6  Pass 1  IDiag  1:
 RMSU=  5.66D-08    CP:  1.00D+00  1.24D+00  1.03D+00  1.42D+00  1.28D+00
 FoFJK:  IHMeth= 1 ICntrl=     0 DoSepK=T KAlg= 1 I1Cent= 0 FoldK=F
 E= -119.146418141844     Delta-E=       -0.000000000064 Rises=F Damp=F
 DIIS: error= 2.88D-07 at cycle   6 NSaved=   6.
 NSaved= 6 IEnMin= 6 EnMin= -119.146418141844     IErMin= 6 ErrMin= 2.88D-07
 ErrMax= 2.88D-07 EMaxC= 1.00D-01 BMatC= 5.24D-12 BMatP= 3.09D-11
 IDIUse=1 WtCom= 1.00D+00 WtEn= 0.00D+00
 Coeff-Com:  0.276D-04 0.212D-02-0.131D-02-0.450D-01 0.243D+00 0.801D+00
 Coeff:      0.276D-04 0.212D-02-0.131D-02-0.450D-01 0.243D+00 0.801D+00
 Gap=     0.522 Goal=   None    Shift=    0.000
 RMSDP=6.65D-08 MaxDP=1.19D-06 DE=-6.36D-11 OVMax= 8.10D-07

 Cycle   7  Pass 1  IDiag  1:
 RMSU=  1.33D-08    CP:  1.00D+00  1.24D+00  1.03D+00  1.44D+00  1.35D+00
                    CP:  1.13D+00
 FoFJK:  IHMeth= 1 ICntrl=     0 DoSepK=T KAlg= 1 I1Cent= 0 FoldK=F
 E= -119.146418141850     Delta-E=       -0.000000000006 Rises=F Damp=F
 DIIS: error= 7.04D-08 at cycle   7 NSaved=   7.
 NSaved= 7 IEnMin= 7 EnMin= -119.146418141850     IErMin= 7 ErrMin= 7.04D-08
 ErrMax= 7.04D-08 EMaxC= 1.00D-01 BMatC= 4.87D-13 BMatP= 5.24D-12
 IDIUse=1 WtCom= 1.00D+00 WtEn= 0.00D+00
 Coeff-Com: -0.126D-03 0.169D-02 0.570D-03-0.169D-01-0.234D-01 0.226D+00
 Coeff-Com:  0.812D+00
 Coeff:     -0.126D-03 0.169D-02 0.570D-03-0.169D-01-0.234D-01 0.226D+00
 Coeff:      0.812D+00
 Gap=     0.522 Goal=   None    Shift=    0.000
 RMSDP=1.95D-08 MaxDP=3.55D-07 DE=-5.51D-12 OVMax= 2.73D-07

 Cycle   8  Pass 1  IDiag  1:
 RMSU=  4.38D-09    CP:  1.00D+00  1.24D+00  1.03D+00  1.44D+00  1.37D+00
                    CP:  1.21D+00  1.11D+00
 FoFJK:  IHMeth= 1 ICntrl=     0 DoSepK=T KAlg= 1 I1Cent= 0 FoldK=F
 E= -119.146418141850     Delta-E=        0.000000000000 Rises=F Damp=F
 DIIS: error= 1.29D-08 at cycle   8 NSaved=   8.
 NSaved= 8 IEnMin= 8 EnMin= -119.146418141850     IErMin= 8 ErrMin= 1.29D-08
 ErrMax= 1.29D-08 EMaxC= 1.00D-01 BMatC= 6.53D-15 BMatP= 4.87D-13
 IDIUse=1 WtCom= 1.00D+00 WtEn= 0.00D+00
 Coeff-Com: -0.989D-05 0.541D-04 0.790D-04 0.288D-03-0.106D-01-0.107D-01
 Coeff-Com:  0.701D-01 0.951D+00
 Coeff:     -0.989D-05 0.541D-04 0.790D-04 0.288D-03-0.106D-01-0.107D-01
 Coeff:      0.701D-01 0.951D+00
 Gap=     0.522 Goal=   None    Shift=    0.000
 RMSDP=4.44D-09 MaxDP=7.28D-08 DE=-3.98D-13 OVMax= 5.26D-08

 SCF Done:  E(RwB97XD) =  -119.146418142     A.U. after    8 cycles
             Convg  =    0.4443D-08             -V/T =  2.0060
 KE= 1.184395094296D+02 PE=-4.405581535948D+02 EE= 1.202867207623D+02
 Leave Link  502 at Wed May  3 10:15:17 2017, MaxMem=   33554432 cpu:      53.5
 (Enter /share/apps/gaussian09/g09/l701.exe)
 Compute integral first derivatives.
 ... and contract with generalized density number  0.
 R6Disp: Adding dispersion energy 1st derivatives to the gradient.
 Leave Link  701 at Wed May  3 10:15:17 2017, MaxMem=   33554432 cpu:       1.6
 (Enter /share/apps/gaussian09/g09/l702.exe)
 L702 exits ... SP integral derivatives will be done elsewhere.
 Leave Link  702 at Wed May  3 10:15:17 2017, MaxMem=   33554432 cpu:       0.3
 (Enter /share/apps/gaussian09/g09/l703.exe)
 Compute integral first derivatives, UseDBF=F ICtDFT=           0.
 Integral derivatives from FoFDir, PRISM(SPDF).
 Calling FoFJK, ICntrl=      2127 FMM=F ISym2X=0 I1Cent= 0 IOpClX= 0 NMat=1 NMatS=1 NMatT=0.
 FoFJK:  IHMeth= 1 ICntrl=  2127 DoSepK=T KAlg= 1 I1Cent= 0 FoldK=F
 FoFCou: FMM=F IPFlag=           0 FMFlag=      100000 FMFlg1=         800
         NFxFlg=           0 DoJE=F BraDBF=F KetDBF=F FulRan=T
         Omega=  0.000000  0.000000  1.000000  0.000000  0.000000 ICntrl=    2527 IOpCl=  0
         NMat0=    1 NMatS0=    1 NMatT0=    0 NMatD0=    1 NMtDS0=    0 NMtDT0=    0
         I1Cent=           0 NGrid=           0.
 Symmetry not used in FoFCou.
 Leave Link  703 at Wed May  3 10:15:19 2017, MaxMem=   33554432 cpu:      13.9
 (Enter /share/apps/gaussian09/g09/l716.exe)
 Dipole        = 1.90938491D-02 2.83743021D-02 3.29537174D-07
 -------------------------------------------------------------------
 Center     Atomic                   Forces (Hartrees/Bohr)
 Number     Number              X              Y              Z
 -------------------------------------------------------------------
      1        6          -0.000474975    0.000019345   -0.000000880
      2        6           0.000132774    0.000271687   -0.000000037
      3        1          -0.000137944    0.000248598    0.000000325
      4        1           0.000100863   -0.000047679   -0.000091878
      5        1           0.000100874   -0.000047586    0.000092474
      6        6           0.000216086   -0.000501199   -0.000000250
      7        1          -0.000013584   -0.000033900   -0.000182543
      8        1          -0.000013753   -0.000033847    0.000182723
      9        1           0.000271796   -0.000034115    0.000000048
     10        1          -0.000091083    0.000079328    0.000087636
     11        1          -0.000091055    0.000079369   -0.000087619
 -------------------------------------------------------------------
 Cartesian Forces:  Max     0.000501199 RMS     0.000167601
 Leave Link  716 at Wed May  3 10:15:19 2017, MaxMem=   33554432 cpu:       0.3
 (Enter /share/apps/gaussian09/g09/l103.exe)

 GradGradGradGradGradGradGradGradGradGradGradGradGradGradGradGradGradGrad
 Berny optimization.
 Using GEDIIS/GDIIS optimizer.
 Internal  Forces:  Max     0.000459246 RMS     0.000134588
 Search for a local minimum.
 Step number   3 out of a maximum of   56
 All quantities printed in internal units (Hartrees-Bohrs-Radians)
 RMS Force = .13459D-03 SwitMx=.10000D-02 MixMth= 2
 Mixed Optimization -- En-DIIS/RFO-DIIS
 Swaping is turned off.
 Update second derivatives using D2CorX and points    1    2    3
 DE= -2.92D-05 DEPred=-3.10D-05 R= 9.43D-01
 SS=  1.41D+00  RLast= 2.06D-02 DXNew= 8.0967D-01 6.1722D-02
 Trust test= 9.43D-01 RLast= 2.06D-02 DXMaxT set to 4.81D-01
 ITU=  1  1  0
     Eigenvalues ---    0.00671   0.00672   0.03760   0.04849   0.05652
     Eigenvalues ---    0.05659   0.05727   0.05817   0.08500   0.12291
     Eigenvalues ---    0.14859   0.16000   0.16000   0.16000   0.16000
     Eigenvalues ---    0.17096   0.22334   0.30916   0.31326   0.31639
     Eigenvalues ---    0.31856   0.31879   0.31879   0.31881   0.31911
     Eigenvalues ---    0.32036   0.35927
 En-DIIS/RFO-DIIS IScMMF=        0 using points:     3    2
 RFO step:  Lambda=-1.59514239D-06.
 DidBck=F Rises=F RFO-DIIS coefs:    0.94641    0.05359
 Iteration  1 RMS(Cart)=  0.00081393 RMS(Int)=  0.00000074
 Iteration  2 RMS(Cart)=  0.00000071 RMS(Int)=  0.00000039
 Variable       Old X    -DE/DX   Delta X   Delta X   Delta X     New X
                                  (DIIS)     (GDIIS)  (Total)
    R1        2.87974   0.00042   0.00006   0.00112   0.00119   2.88093
    R2        2.06231   0.00028   0.00009   0.00065   0.00074   2.06305
    R3        2.06523   0.00006   0.00003   0.00012   0.00015   2.06538
    R4        2.06523   0.00006   0.00003   0.00012   0.00015   2.06538
    R5        2.87979   0.00046   0.00006   0.00126   0.00132   2.88111
    R6        2.06643   0.00012   0.00013   0.00012   0.00025   2.06668
    R7        2.06643   0.00012   0.00013   0.00012   0.00025   2.06668
    R8        2.06234   0.00027   0.00009   0.00064   0.00073   2.06307
    R9        2.06532   0.00006   0.00003   0.00010   0.00013   2.06545
[...]
     28 -0.303339D-03  0.143623D-03 -0.814453D-03  0.182777D-03 -0.855196D-02
     29 -0.573943D-03 -0.692085D-03  0.864102D-03 -0.314000D-03 -0.214729D-03
     30  0.162227D-02 -0.338629D-03  0.348887D-03  0.805206D-03 -0.553597D-03
     31 -0.182825D-03 -0.404893D-03  0.275761D-02  0.303560D-03 -0.855245D-02
     32  0.314021D-03  0.300480D-02 -0.573925D-02  0.573404D-03 -0.214783D-03
     33  0.805172D-03 -0.794038D-04  0.424651D-03  0.162234D-02  0.553753D-03
               26            27            28            29            30 
     26  0.507698D-01
     27  0.000000D+00  0.458688D-01
     28 -0.160471D-01  0.272313D-01  0.747314D-01
     29 -0.924626D-03 -0.189388D-03  0.425147D-01  0.123645D+00
     30 -0.141408D-02  0.813252D-03 -0.727204D-01 -0.117276D+00  0.238588D+00
     31 -0.160452D-01 -0.272322D-01  0.270587D-02  0.614090D-02  0.885833D-02
     32 -0.924700D-03  0.189276D-03  0.614178D-02  0.858854D-02  0.133848D-01
     33  0.141427D-02  0.813866D-03 -0.885836D-02 -0.133829D-01 -0.204689D-01
               31            32            33 
     31  0.747336D-01
     32  0.425122D-01  0.123630D+00
     33  0.727264D-01  0.117268D+00  0.238603D+00
 Leave Link  716 at Wed May  3 10:16:10 2017, MaxMem=   33554432 cpu:       0.4
 (Enter /share/apps/gaussian09/g09/l103.exe)

 GradGradGradGradGradGradGradGradGradGradGradGradGradGradGradGradGradGrad
 Berny optimization.
 Red2BG is reusing G-inverse.
 Internal  Forces:  Max     0.000133600 RMS     0.000030368
 Search for a local minimum.
 Step number   1 out of a maximum of    2
 All quantities printed in internal units (Hartrees-Bohrs-Radians)
 Second derivative matrix not updated -- analytic derivatives used.
 ITU=  0
     Eigenvalues ---    0.00209   0.00258   0.03528   0.03946   0.04493
     Eigenvalues ---    0.04555   0.04605   0.04608   0.07099   0.10361
     Eigenvalues ---    0.12028   0.12396   0.12864   0.14331   0.15157
     Eigenvalues ---    0.16458   0.21954   0.29733   0.30898   0.33213
     Eigenvalues ---    0.33682   0.33887   0.33902   0.34157   0.34167
     Eigenvalues ---    0.34710   0.34914
 Angle between quadratic step and forces=  41.25 degrees.
 Linear search not attempted -- first point.
 Iteration  1 RMS(Cart)=  0.00029829 RMS(Int)=  0.00000009
 Iteration  2 RMS(Cart)=  0.00000009 RMS(Int)=  0.00000002
 Variable       Old X    -DE/DX   Delta X   Delta X   Delta X     New X
                                 (Linear)    (Quad)   (Total)
    R1        2.88093   0.00012   0.00000   0.00048   0.00048   2.88141
    R2        2.06305  -0.00001   0.00000  -0.00005  -0.00005   2.06300
    R3        2.06538   0.00000   0.00000  -0.00001  -0.00001   2.06537
    R4        2.06538   0.00000   0.00000  -0.00001  -0.00001   2.06537
    R5        2.88111   0.00013   0.00000   0.00055   0.00055   2.88166
    R6        2.06668   0.00001   0.00000   0.00001   0.00001   2.06669
    R7        2.06668   0.00001   0.00000   0.00001   0.00001   2.06669
    R8        2.06307  -0.00001   0.00000  -0.00005  -0.00005   2.06302
    R9        2.06545   0.00000   0.00000  -0.00003  -0.00003   2.06543
   R10        2.06545   0.00000   0.00000  -0.00003  -0.00003   2.06543
    A1        1.94819   0.00003   0.00000   0.00017   0.00017   1.94836
    A2        1.93676  -0.00003   0.00000  -0.00030  -0.00030   1.93646
    A3        1.93676  -0.00003   0.00000  -0.00030  -0.00030   1.93646
    A4        1.88107   0.00001   0.00000   0.00012   0.00012   1.88119
    A5        1.88107   0.00001   0.00000   0.00012   0.00012   1.88118
    A6        1.87712   0.00003   0.00000   0.00023   0.00023   1.87735
    A7        1.96571  -0.00001   0.00000  -0.00035  -0.00035   1.96536
    A8        1.91047   0.00000   0.00000   0.00000   0.00000   1.91047
    A9        1.91048   0.00000   0.00000  -0.00001  -0.00001   1.91047
   A10        1.90981   0.00000   0.00000  -0.00004  -0.00004   1.90976
   A11        1.90981   0.00000   0.00000  -0.00004  -0.00004   1.90976
   A12        1.85423   0.00001   0.00000   0.00049   0.00049   1.85472
   A13        1.94703   0.00002   0.00000   0.00014   0.00014   1.94717
   A14        1.93661  -0.00004   0.00000  -0.00034  -0.00034   1.93628
   A15        1.93661  -0.00004   0.00000  -0.00034  -0.00034   1.93628
   A16        1.88175   0.00001   0.00000   0.00015   0.00015   1.88190
   A17        1.88175   0.00001   0.00000   0.00015   0.00015   1.88190
   A18        1.87730   0.00003   0.00000   0.00026   0.00026   1.87756
    D1        3.14159   0.00000   0.00000   0.00001   0.00001  -3.14159
    D2       -1.01290  -0.00001   0.00000  -0.00029  -0.00029  -1.01318
    D3        1.01289   0.00001   0.00000   0.00030   0.00030   1.01319
    D4       -1.04300   0.00000   0.00000   0.00006   0.00006  -1.04294
    D5        1.08570  -0.00001   0.00000  -0.00023  -0.00023   1.08547
    D6        3.11148   0.00001   0.00000   0.00035   0.00035   3.11184
    D7        1.04299   0.00000   0.00000  -0.00005  -0.00005   1.04295
    D8       -3.11149  -0.00001   0.00000  -0.00034  -0.00034  -3.11183
    D9       -1.08571   0.00001   0.00000   0.00025   0.00025  -1.08546
   D10        3.14159   0.00000   0.00000   0.00001   0.00001   3.14159
   D11       -1.04302   0.00000   0.00000   0.00006   0.00006  -1.04296
   D12        1.04301   0.00000   0.00000  -0.00005  -0.00005   1.04296
   D13        1.01251   0.00001   0.00000   0.00028   0.00028   1.01279
   D14        3.11109   0.00001   0.00000   0.00033   0.00033   3.11142
   D15       -1.08607   0.00001   0.00000   0.00022   0.00022  -1.08585
   D16       -1.01252  -0.00001   0.00000  -0.00026  -0.00026  -1.01279
   D17        1.08606  -0.00001   0.00000  -0.00021  -0.00021   1.08585
   D18       -3.11110  -0.00001   0.00000  -0.00032  -0.00032  -3.11142
         Item               Value     Threshold  Converged?
 Maximum Force            0.000134     0.000450     YES
 RMS     Force            0.000030     0.000300     YES
 Maximum Displacement     0.000798     0.001800     YES
 RMS     Displacement     0.000298     0.001200     YES
 Predicted change in Energy=-1.234935D-07
 Optimization completed.
    -- Stationary point found.
                           ----------------------------
                           !   Optimized Parameters   !
                           ! (Angstroms and Degrees)  !
 --------------------------                            --------------------------
 ! Name  Definition              Value          Derivative Info.                !
 --------------------------------------------------------------------------------
 ! R1    R(1,2)                  1.5245         -DE/DX =    0.0001              !
 ! R2    R(1,3)                  1.0917         -DE/DX =    0.0                 !
 ! R3    R(1,4)                  1.093          -DE/DX =    0.0                 !
 ! R4    R(1,5)                  1.093          -DE/DX =    0.0                 !
 ! R5    R(2,6)                  1.5246         -DE/DX =    0.0001              !
 ! R6    R(2,7)                  1.0936         -DE/DX =    0.0                 !
 ! R7    R(2,8)                  1.0936         -DE/DX =    0.0                 !
 ! R8    R(6,9)                  1.0917         -DE/DX =    0.0                 !
 ! R9    R(6,10)                 1.093          -DE/DX =    0.0                 !
 ! R10   R(6,11)                 1.093          -DE/DX =    0.0                 !
 ! A1    A(2,1,3)              111.6233         -DE/DX =    0.0                 !
 ! A2    A(2,1,4)              110.9681         -DE/DX =    0.0                 !
 ! A3    A(2,1,5)              110.9681         -DE/DX =    0.0                 !
 ! A4    A(3,1,4)              107.7774         -DE/DX =    0.0                 !
 ! A5    A(3,1,5)              107.7773         -DE/DX =    0.0                 !
 ! A6    A(4,1,5)              107.5513         -DE/DX =    0.0                 !
 ! A7    A(1,2,6)              112.6269         -DE/DX =    0.0                 !
 ! A8    A(1,2,7)              109.4621         -DE/DX =    0.0                 !
 ! A9    A(1,2,8)              109.4622         -DE/DX =    0.0                 !
 ! A10   A(6,2,7)              109.4238         -DE/DX =    0.0                 !
 ! A11   A(6,2,8)              109.4238         -DE/DX =    0.0                 !
 ! A12   A(7,2,8)              106.2397         -DE/DX =    0.0                 !
 ! A13   A(2,6,9)              111.5568         -DE/DX =    0.0                 !
 ! A14   A(2,6,10)             110.9598         -DE/DX =    0.0                 !
 ! A15   A(2,6,11)             110.9598         -DE/DX =    0.0                 !
 ! A16   A(9,6,10)             107.8163         -DE/DX =    0.0                 !
 ! A17   A(9,6,11)             107.8164         -DE/DX =    0.0                 !
 ! A18   A(10,6,11)            107.5614         -DE/DX =    0.0                 !
 ! D1    D(3,1,2,6)           -180.0002         -DE/DX =    0.0                 !
 ! D2    D(3,1,2,7)            -58.0347         -DE/DX =    0.0                 !
 ! D3    D(3,1,2,8)             58.0342         -DE/DX =    0.0                 !
 ! D4    D(4,1,2,6)            -59.7596         -DE/DX =    0.0                 !
 ! D5    D(4,1,2,7)             62.2059         -DE/DX =    0.0                 !
 ! D6    D(4,1,2,8)            178.2749         -DE/DX =    0.0                 !
 ! D7    D(5,1,2,6)             59.7592         -DE/DX =    0.0                 !
 ! D8    D(5,1,2,7)           -178.2753         -DE/DX =    0.0                 !
 ! D9    D(5,1,2,8)            -62.2064         -DE/DX =    0.0                 !
 ! D10   D(1,2,6,9)            179.9996         -DE/DX =    0.0                 !
 ! D11   D(1,2,6,10)           -59.7607         -DE/DX =    0.0                 !
 ! D12   D(1,2,6,11)            59.7599         -DE/DX =    0.0                 !
 ! D13   D(7,2,6,9)             58.0124         -DE/DX =    0.0                 !
 ! D14   D(7,2,6,10)           178.2521         -DE/DX =    0.0                 !
 ! D15   D(7,2,6,11)           -62.2273         -DE/DX =    0.0                 !
 ! D16   D(8,2,6,9)            -58.0132         -DE/DX =    0.0                 !
 ! D17   D(8,2,6,10)            62.2265         -DE/DX =    0.0                 !
 ! D18   D(8,2,6,11)          -178.2529         -DE/DX =    0.0                 !
 --------------------------------------------------------------------------------
 GradGradGradGradGradGradGradGradGradGradGradGradGradGradGradGradGradGrad

 Leave Link  103 at Wed May  3 10:16:10 2017, MaxMem=   33554432 cpu:       0.0
 (Enter /share/apps/gaussian09/g09/l9999.exe)
 1\1\GINC-COMPUTE-0-3\Freq\RwB97XD\TZVP\C3H8\CRAIGV\03-May-2017\0\\#P G
 eom=AllCheck Guess=TCheck SCRF=Check GenChk RwB97XD/TZVP Freq\\Title C
 ard Required\\0,1\C,-1.7488687664,2.1059361126,-0.0000215903\C,-0.2243
 879471,2.094885191,-0.0000254935\H,-2.1438029867,3.1237175325,0.000020
 9653\H,-2.1436972714,1.5948242378,-0.8817378751\H,-2.1436937118,1.5947
 522233,0.8816544529\C,0.3519591634,0.6834018731,-0.000079445\H,0.14394
 11047,2.6381630441,-0.8748018701\H,0.1439462088,2.6380982549,0.8747889
 197\H,1.4436163627,0.6958761554,-0.0000890703\H,0.0238828589,0.1270904
 645,0.8816874877\H,0.023866465,0.1271511708,-0.8818784813\\Version=EM6
 4L-G09RevC.01\HF=-119.1464201\RMSD=1.414e-09\RMSF=5.215e-05\ZeroPoint=
 0.1040066\Thermal=0.110513\Dipole=0.0189474,0.0281752,0.000001\DipoleD
 eriv=-0.0062052,0.0204141,0.0000009,0.0265483,0.069511,-0.0000017,0.00
 00011,-0.0000023,0.1161172,0.1333171,-0.011822,-0.0000001,-0.011217,0.
 1221428,-0.0000009,-0.0000003,-0.0000012,0.1442399,-0.0147676,0.073172
 4,0.0000031,0.110391,-0.1406116,-0.0000089,0.0000048,-0.0000087,0.0766
 97,-0.0000214,-0.0197756,-0.0339046,-0.059782,0.0139313,-0.0966531,-0.
 0834844,-0.0894438,-0.0889923,-0.0000213,-0.0197782,0.0339027,-0.05978
 82,0.0139165,0.0966616,0.0834791,0.0894524,-0.0889775,0.0408874,0.0461
 842,0.0000018,0.0401957,0.0186562,-0.000004,0.0000019,-0.0000039,0.116
 0682,-0.0233028,-0.0211449,0.0587824,-0.0211921,-0.0398449,0.0867059,0
 .0780622,0.1154161,-0.0870817,-0.023303,-0.0211406,-0.0587845,-0.02118
 73,-0.0398307,-0.0867023,-0.0780644,-0.1154122,-0.087096,-0.1865557,0.
 0419801,0.0000035,0.0042738,0.0321423,-0.0000011,0.0000026,-0.0000019,
 0.0762524,0.0399873,-0.0440465,0.0767835,-0.0041221,-0.0250124,0.06724
 8,0.051925,0.1109027,-0.0886083,0.0399853,-0.044043,-0.0767888,-0.0041
 2,-0.0250005,-0.0672435,-0.0519277,-0.1108972,-0.0886189\Polar=39.8069
 75,-1.8271933,38.3180852,-0.0000778,0.0000866,36.0354146\PG=C01 [X(C3H
 8)]\NImag=0\\0.48066788,-0.00464465,0.58309683,0.,0.00000049,0.5728336
 3,-0.20100375,-0.00461821,0.00000006,0.48842936,-0.00128523,-0.0808181
 2,0.00000003,0.03922405,0.51747950,0.00000024,0.00000007,-0.08120603,0
 .00000232,-0.00000299,0.60121352,-0.08001044,0.08709829,0.00000360,-0.
 00968340,0.03299727,0.00000133,0.08806057,0.08865937,-0.28412429,-0.00
 001001,-0.00220739,0.00234726,0.00000015,-0.09703729,0.30583695,0.0000
 0368,-0.00001002,-0.04749917,-0.00000008,0.00000006,-0.00143172,-0.000
 00401,0.00001100,0.04596319,-0.07903505,-0.04267869,-0.07402366,-0.013
 00758,-0.01633463,-0.02921393,0.00361823,0.00467642,0.01028768,0.08858
 619,-0.04317816,-0.10685151,-0.10063395,-0.00002959,-0.00077883,0.0002
 3397,-0.01119008,-0.01318507,-0.02528074,0.04798299,0.11116990,-0.0748
 7583,-0.10061692,-0.22369568,0.00059929,0.00051799,0.00093274,0.001103
 51,0.00102794,0.00084476,0.08254198,0.11108903,0.23960054,-0.07903426,
 -0.04268446,0.07401959,-0.01300748,-0.01633692,0.02921270,0.00361819,0
 .00467726,-0.01028733,0.00353044,0.00648339,-0.00917641,0.08858533,-0.
 04318401,-0.10686716,0.10064378,-0.00002950,-0.00077878,-0.00023414,-0
 .01118990,-0.01318707,0.02527967,0.00648259,0.00784573,-0.01320612,0.0
 4798937,0.11118730,0.07487169,0.10062673,-0.22367919,-0.00059919,-0.00
 051806,0.00093255,-0.00110443,-0.00102911,0.00084674,0.00917682,0.0132
 0843,-0.02054915,-0.08253746,-0.11109984,0.23958249,-0.01765095,0.0365
 1801,0.00000138,-0.09554616,0.03768320,0.00000092,-0.00711552,0.000522
 95,0.00000003,0.00164609,0.00049870,0.00028374,0.00164609,0.00049874,-
 0.00028370,0.57203457,0.00467455,-0.00113783,-0.00000010,0.04107075,-0
 .18595957,-0.00000407,-0.00204014,0.00106625,0.00000002,-0.00127525,0.
 00088857,0.00026822,-0.00127526,0.00088867,-0.00026817,0.03256203,0.48
 841516,0.00000026,-0.00000022,0.00006170,0.00000113,-0.00000406,-0.080
 34194,-0.00000003,0.,0.00043841,-0.00067953,0.00115192,0.00029813,0.00
 067941,-0.00115187,0.00029805,0.00000167,-0.00000271,0.56992984,-0.013
 44549,-0.01664975,0.02875249,-0.07627430,-0.04327862,0.06854306,0.0010
 9462,0.00055992,0.00008864,0.00130928,-0.00035527,-0.00045035,-0.00699
 294,0.00013834,-0.00042519,0.00403394,0.00740135,-0.01144618,0.0867465
 1,0.00038166,0.00037335,-0.00085248,-0.04327484,-0.11006059,0.10080558
 ,-0.00017070,0.00040469,-0.00039220,-0.00022416,-0.00027738,0.00018613
 ,0.00038574,0.00084303,-0.00008093,-0.00962420,-0.01720150,0.02640353,
 0.04431171,0.12141265,-0.00066522,-0.00101749,0.00107920,0.06939287,0.
 10209932,-0.22028291,0.00063276,-0.00034485,-0.00003399,0.00035889,-0.
 00005081,0.00080375,-0.00041899,-0.00049304,0.00162480,-0.00068783,-0.
 00097198,0.00108691,-0.07632842,-0.11231901,0.23490030,-0.01344555,-0.
 01664755,-0.02875364,-0.07627495,-0.04327411,-0.06854706,0.00109461,0.
 00055993,-0.00008862,-0.00699292,0.00013829,0.00042525,0.00130927,-0.0
 0035531,0.00045032,0.00403406,0.00740049,0.01144668,0.00342452,0.00601
 429,0.00875923,0.08674714,0.00038163,0.00037324,0.00085245,-0.04327032
 ,-0.11004632,-0.10079722,-0.00017064,0.00040465,0.00039223,0.00038574,
 0.00084298,0.00008088,-0.00022412,-0.00027738,-0.00018621,-0.00962447,
 -0.01719968,-0.02640488,0.00601502,0.00823674,0.01290313,0.04430672,0.
 12139680,0.00066531,0.00101752,0.00107949,-0.06939689,-0.10209105,-0.2
 2029814,-0.00063278,0.00034489,-0.00003392,0.00041906,0.00049298,0.001
 62484,-0.00035892,0.00005073,0.00080372,0.00068711,0.00097062,0.001085
 03,-0.00875894,-0.01290096,-0.02157083,0.07633258,0.11231043,0.2349169
 8,0.00044815,0.00358221,0.00000014,-0.00996355,-0.00230497,-0.00000003
 ,-0.00088750,0.00004719,0.,0.00036456,-0.00012875,0.00007549,0.0003645
 6,-0.00012874,-0.00007550,-0.31681885,-0.00668169,0.00000231,0.0003651
 0,0.00025735,-0.00055714,0.00036510,0.00025729,0.00055714,0.34286684,0
 .00100525,-0.00654964,-0.00000027,0.03287286,0.00260104,-0.00000012,0.
 00208334,-0.00003125,-0.00000002,-0.00009083,-0.00001926,0.00024392,-0
 .00009080,-0.00001924,-0.00024394,-0.00830621,-0.04719030,0.00000004,-
 0.00045540,0.00114405,0.00045465,-0.00045546,0.00114411,-0.00045456,0.
 00552963,0.05076981,0.00000002,-0.00000025,0.00043600,0.00000120,0.000
 00017,-0.00138070,0.00000007,-0.00000002,0.00052220,0.00043328,0.00002
 749,0.00019261,-0.00043328,-0.00002751,0.00019259,0.00000225,0.0000000
 2,-0.04738929,-0.00039334,-0.00007556,-0.00003466,0.00039329,0.0000756
 5,-0.00003471,-0.00000257,0.00000012,0.04586884,0.00125471,0.00036245,
 -0.00133000,0.00316578,0.00645536,-0.01105302,0.00010532,-0.00022919,0
 .00013529,-0.00001821,-0.00004350,-0.00000493,-0.00000099,-0.00017808,
 0.00052170,-0.07313065,-0.04091953,0.06619899,-0.00040488,0.00275758,-
 0.00030334,0.00014362,-0.00081445,0.00018278,-0.00855196,-0.01604713,0
 .02723131,0.07473139,-0.00140516,0.00125253,0.00021451,-0.00986865,-0.
 01699374,0.02702484,-0.00019007,0.00023396,-0.00040942,0.00012593,0.00
 001164,-0.00008264,0.00094986,0.00035328,-0.00049153,-0.04036550,-0.11
 129190,0.10548064,0.00300479,-0.00573912,-0.00057394,-0.00069209,0.000
 86410,-0.00031400,-0.00021473,-0.00092463,-0.00018939,0.04251471,0.123
 64534,-0.00016951,-0.00033095,0.00029503,-0.00024129,-0.00071071,0.000
 93232,-0.00019706,-0.00015995,0.00019173,0.00008159,0.00003113,-0.0001
 0832,-0.00061774,0.00026948,0.00005573,0.06581867,0.10628286,-0.222726
 74,0.00007963,-0.00042523,0.00162227,-0.00033863,0.00034889,0.00080521
 ,-0.00055360,-0.00141408,0.00081325,-0.07272041,-0.11727619,0.23858844
 ,0.00125476,0.00036235,0.00133004,0.00316603,0.00645460,0.01105346,0.0
 0010533,-0.00022918,-0.00013530,-0.00000103,-0.00017802,-0.00052173,-0
 .00001821,-0.00004351,0.00000494,-0.07313263,-0.04091730,-0.06620470,0
 .00014361,-0.00081444,-0.00018283,-0.00040489,0.00275761,0.00030356,-0
 .00855245,-0.01604524,-0.02723223,0.00270587,0.00614090,0.00885833,0.0
 7473360,-0.00140523,0.00125260,-0.00021445,-0.00986917,-0.01699186,-0.
 02702606,-0.00019010,0.00023392,0.00040943,0.00094989,0.00035324,0.000
 49157,0.00012594,0.00001164,0.00008264,-0.04036326,-0.11127787,-0.1054
 7239,-0.00069210,0.00086408,0.00031402,0.00300480,-0.00573925,0.000573
 40,-0.00021478,-0.00092470,0.00018928,0.00614178,0.00858854,0.01338476
 ,0.04251222,0.12362964,0.00016936,0.00033103,0.00029504,0.00024059,0.0
 0070932,0.00093031,0.00019705,0.00015996,0.00019177,0.00061782,-0.0002
 6945,0.00005575,-0.00008157,-0.00003113,-0.00010833,-0.06582426,-0.106
 27470,-0.22274010,0.00033860,-0.00034887,0.00080517,-0.00007940,0.0004
 2465,0.00162234,0.00055375,0.00141427,0.00081387,-0.00885836,-0.013382
 87,-0.02046892,0.07272644,0.11726780,0.23860310\\0.00015838,-0.0000278
 4,0.00000007,-0.00007207,-0.00013238,-0.00000003,0.00000214,0.00000866
 ,-0.00000003,-0.00002343,-0.00000451,0.00001017,-0.00002344,-0.0000045
 2,-0.00001028,-0.00009035,0.00016492,0.00000007,0.00000481,0.00001574,
 0.00003035,0.00000480,0.00001578,-0.00003035,0.00001266,0.00001247,0.,
 0.00001325,-0.00002413,-0.00000934,0.00001323,-0.00002418,0.00000938\\
 \@


 IT IS BY EATING THE LIGHT OF A STAR THAT WE EXIST, 
 IN THE FINAL ANALYSIS, 
 JUST AS IT IS BY PERCEIVING THE LIGHT OF STARS
 THAT WE DEFINE THE WORLD AROUND US.

                                    -- GILBERT GROSVENOR
 Job cpu time:  0 days  0 hours  5 minutes 35.8 seconds.
 File lengths (MBytes):  RWF=     17 Int=      0 D2E=      0 Chk=      2 Scr=      1
 Normal termination of Gaussian 09 at Wed May  3 10:16:10 2017.
