 Entering Gaussian System, Link 0=g09
 Input=freqSiF3OHopt.gjf
 Output=freqSiF3OHopt.log
 Initial command:
 /share/apps/gaussian09/g09/l1.exe /state/partition1/96376.karakoram.cnsi.ucsb.edu/Gau-11816.inp -scrdir=/state/partition1/96376.karakoram.cnsi.ucsb.edu/
 Entering Link 1 = /share/apps/gaussian09/g09/l1.exe PID=     11817.
  
 Copyright (c) 1988,1990,1992,1993,1995,1998,2003,2009,2011,
            Gaussian, Inc.  All Rights Reserved.
  
 This is part of the Gaussian(R) 09 program.  It is based on
 the Gaussian(R) 03 system (copyright 2003, Gaussian, Inc.),
 the Gaussian(R) 98 system (copyright 1998, Gaussian, Inc.),
 the Gaussian(R) 94 system (copyright 1995, Gaussian, Inc.),
 the Gaussian 92(TM) system (copyright 1992, Gaussian, Inc.),
 the Gaussian 90(TM) system (copyright 1990, Gaussian, Inc.),
 the Gaussian 88(TM) system (copyright 1988, Gaussian, Inc.),
 the Gaussian 86(TM) system (copyright 1986, Carnegie Mellon
 University), and the Gaussian 82(TM) system (copyright 1983,
 Carnegie Mellon University). Gaussian is a federally registered
 trademark of Gaussian, Inc.
  
 This software contains proprietary and confidential information,
 including trade secrets, belonging to Gaussian, Inc.
  
 This software is provided under written license and may be
 used, copied, transmitted, or stored only in accord with that
 written license.
  
 The following legend is applicable only to US Government
 contracts under FAR:
  
                    RESTRICTED RIGHTS LEGEND
  
 Use, reproduction and disclosure by the US Government is
 subject to restrictions as set forth in subparagraphs (a)
 and (c) of the Commercial Computer Software - Restricted
 Rights clause in FAR 52.227-19.
  
 Gaussian, Inc.
 340 Quinnipiac St., Bldg. 40, Wallingford CT 06492
  
  
 ---------------------------------------------------------------
 Warning -- This program may not be used in any manner that
 competes with the business of Gaussian, Inc. or will provide
 assistance to any competitor of Gaussian, Inc.  The licensee
 of this program is prohibited from giving any competitor of
 Gaussian, Inc. access to this program.  By using this program,
 the user acknowledges that Gaussian, Inc. is engaged in the
 business of creating and licensing software in the field of
 computational chemistry and represents and warrants to the
 licensee that it is not a competitor of Gaussian, Inc. and that
 it will not use this program in any manner prohibited above.
 ---------------------------------------------------------------
  

 Cite this work as:
 Gaussian 09, Revision C.01,
 M. J. Frisch, G. W. Trucks, H. B. Schlegel, G. E. Scuseria, 
 M. A. Robb, J. R. Cheeseman, G. Scalmani, V. Barone, B. Mennucci, 
 G. A. Petersson, H. Nakatsuji, M. Caricato, X. Li, H. P. Hratchian, 
 A. F. Izmaylov, J. Bloino, G. Zheng, J. L. Sonnenberg, M. Hada, 
 M. Ehara, K. Toyota, R. Fukuda, J. Hasegawa, M. Ishida, T. Nakajima, 
 Y. Honda, O. Kitao, H. Nakai, T. Vreven, J. A. Montgomery, Jr., 
 J. E. Peralta, F. Ogliaro, M. Bearpark, J. J. Heyd, E. Brothers, 
 K. N. Kudin, V. N. Staroverov, T. Keith, R. Kobayashi, J. Normand, 
 K. Raghavachari, A. Rendell, J. C. Burant, S. S. Iyengar, J. Tomasi, 
 M. Cossi, N. Rega, J. M. Millam, M. Klene, J. E. Knox, J. B. Cross, 
 V. Bakken, C. Adamo, J. Jaramillo, R. Gomperts, R. E. Stratmann, 
 O. Yazyev, A. J. Austin, R. Cammi, C. Pomelli, J. W. Ochterski, 
 R. L. Martin, K. Morokuma, V. G. Zakrzewski, G. A. Voth, 
 P. Salvador, J. J. Dannenberg, S. Dapprich, A. D. Daniels, 
 O. Farkas, J. B. Foresman, J. V. Ortiz, J. Cioslowski, 
 and D. J. Fox, Gaussian, Inc., Wallingford CT, 2010.
 
 ******************************************
 Gaussian 09:  EM64L-G09RevC.01 23-Sep-2011
                 3-May-2017 
 ******************************************
 %nprocshared=8
 Will use up to    8 processors via shared memory.
 -------------------------------------------------------
 #p wb97xd/gen nosymm geom=connectivity freq temp=373.15
 -------------------------------------------------------
 1/10=4,30=1,38=1,57=2,112=373150/1,3;
 2/12=2,15=1,17=6,18=5,40=1/2;
 3/5=7,11=2,16=1,25=1,30=1,71=2,74=-58/1,2,3;
 4//1;
 5/5=2,38=5,98=1/2;
 8/6=4,10=90,11=11/1;
 11/6=1,8=1,9=11,15=111,16=1,31=1/1,2,10;
 10/6=1,31=1/2;
 6/7=2,8=2,9=2,10=2,18=1,28=1/1;
 7/8=1,10=1,25=1,30=1/1,2,3,16;
 1/10=4,30=1/3;
 99//99;
 Leave Link    1 at Wed May  3 10:15:12 2017, MaxMem=          0 cpu:       0.3
 (Enter /share/apps/gaussian09/g09/l101.exe)
 -------------------
 Title Card Required
 -------------------
 Charge =  0 Multiplicity = 1
 Symbolic Z-Matrix:
 Si                   -1.74278   0.40072  -1.17841 
 O                    -1.19686   1.25493   0.07949 
 F(Iso=100000000000)  -1.19543  -1.11954  -1.15177 
 F(Iso=100000000000)  -1.24482   1.09874  -2.53296 
 F(Iso=100000000000)  -3.35402   0.35186  -1.24355 
 H                    -1.29222   0.91535   0.9683 
 
 NAtoms=      6 NQM=        0 NQMF=       0 NMMI=      6 NMMIF=      0
                NMic=       0 NMicF=      0.
                    Isotopes and Nuclear Properties:
 (Nuclear quadrupole moments (NQMom) in fm**2, nuclear magnetic moments (NMagM)
  in nuclear magnetons)

  Atom         1           2           3           4           5           6
 IAtWgt=          28          16100000000000100000000000100000000000           1
 AtmWgt=  27.9769284  15.9949146************************************   1.0078250
 NucSpn=           0           0           0           0           0           1
 AtZEff=   0.0000000   0.0000000   0.0000000   0.0000000   0.0000000   0.0000000
 NQMom=    0.0000000   0.0000000   0.0000000   0.0000000   0.0000000   0.0000000
 NMagM=    0.0000000   0.0000000   0.0000000   0.0000000   0.0000000   2.7928460
 Leave Link  101 at Wed May  3 10:15:12 2017, MaxMem=   33554432 cpu:       1.0
 (Enter /share/apps/gaussian09/g09/l103.exe)

 GradGradGradGradGradGradGradGradGradGradGradGradGradGradGradGradGradGrad
 Berny optimization.
 Initialization pass.
 Trust Radius=3.00D-01 FncErr=1.00D-07 GrdErr=1.00D-07
 Number of steps in this run=      2 maximum allowed number of steps=      2.
 GradGradGradGradGradGradGradGradGradGradGradGradGradGradGradGradGradGrad

 Leave Link  103 at Wed May  3 10:15:12 2017, MaxMem=   33554432 cpu:       0.2
 (Enter /share/apps/gaussian09/g09/l202.exe)
                          Input orientation:                          
 ---------------------------------------------------------------------
 Center     Atomic      Atomic             Coordinates (Angstroms)
 Number     Number       Type             X           Y           Z
 ---------------------------------------------------------------------
      1         14           0       -1.742775    0.400722   -1.178414
      2          8           0       -1.196862    1.254934    0.079489
      3          9           0       -1.195433   -1.119540   -1.151769
      4          9           0       -1.244818    1.098738   -2.532962
      5          9           0       -3.354018    0.351855   -1.243545
      6          1           0       -1.292218    0.915350    0.968303
 ---------------------------------------------------------------------
                    Distance matrix (angstroms):
                    1          2          3          4          5
     1  Si   0.000000
     2  O    1.615555   0.000000
     3  F    1.616010   2.674720   0.000000
     4  F    1.603118   2.617556   2.613597   0.000000
     5  F    1.613299   2.686874   2.613985   2.582471   0.000000
     6  H    2.253051   0.956243   2.940213   3.506385   3.075844
                    6
     6  H    0.000000
 Symmetry turned off by external request.
 Stoichiometry    F3HOSi
 Framework group  C1[X(F3HOSi)]
 Deg. of freedom    12
 Full point group                 C1      NOp   1
 Rotational constants (GHZ):      0.0000000      0.0000000      0.0000000
 Leave Link  202 at Wed May  3 10:15:12 2017, MaxMem=   33554432 cpu:       0.0
 (Enter /share/apps/gaussian09/g09/l301.exe)
 General basis read from cards:  (5D, 7F)
 Centers:   6  1  2
 TZVP
 ****
 Centers:   3  4  5
 6-31G
 ****
 Ernie: Thresh=  0.10000D-02 Tol=  0.10000D-05 Strict=F.
 Integral buffers will be    131072 words long.
 Raffenetti 2 integral format.
 Two-electron integral symmetry is turned off.
    74 basis functions,   156 primitive gaussians,    76 cartesian basis functions
    25 alpha electrons       25 beta electrons
       nuclear repulsion energy       265.4848123507 Hartrees.
 IExCor= 4639 DFT=T Ex+Corr=wB97XD ExCW=0 ScaHFX=  1.000000
 ScaDFX=  1.000000  1.000000  1.000000  1.000000 ScalE2=  1.000000  1.000000
 IRadAn=      0 IRanWt=     -1 IRanGd=            0 ICorTp=0
  HFx wShort=  0.000000 wLong=  0.200000 cFull=  0.222036 cShort=  0.000000 cLong=  0.777964
  DFx wShort=  0.000000 wLong=  0.200000 cFull=  0.000000 cShort=  0.000000 cLong=  1.000000
 NAtoms=    6 NActive=    6 NUniq=    6 SFac= 1.00D+00 NAtFMM=   60 NAOKFM=F Big=F
 R6Disp: Dispersion energy =        -0.0012315317 Hartrees.
 Nuclear repulsion after empirical dispersion term =      265.4835808191 Hartrees.
 Leave Link  301 at Wed May  3 10:15:12 2017, MaxMem=   33554432 cpu:       0.6
 (Enter /share/apps/gaussian09/g09/l302.exe)
 NPDir=0 NMtPBC=     1 NCelOv=     1 NCel=       1 NClECP=     1 NCelD=      1
         NCelK=      1 NCelE2=     1 NClLst=     1 CellRange=     0.0.
 One-electron integrals computed using PRISM.
 NBasis=    74 RedAO= T  NBF=    74
 NBsUse=    74 1.00D-06 NBFU=    74
 Precomputing XC quadrature grid using
 IXCGrd= 2 IRadAn=           0 IRanWt=          -1 IRanGd=           0 AccXCQ= 0.00D+00.
 NRdTot=     379 NPtTot=       47862 NUsed=       50606 NTot=       50638
 NSgBfM=    75    75    75    75    75 NAtAll=     6     6.
 Leave Link  302 at Wed May  3 10:15:12 2017, MaxMem=   33554432 cpu:       1.6
 (Enter /share/apps/gaussian09/g09/l303.exe)
 DipDrv:  MaxL=1.
 Leave Link  303 at Wed May  3 10:15:12 2017, MaxMem=   33554432 cpu:       0.4
 (Enter /share/apps/gaussian09/g09/l401.exe)
 Harris functional with IExCor= 4639 diagonalized for initial guess.
 ExpMin= 7.01D-02 ExpMax= 4.48D+04 ExpMxC= 1.53D+03 IAcc=2 IRadAn=         4 AccDes= 0.00D+00
 HarFok:  IExCor= 4639 AccDes= 0.00D+00 IRadAn=         4 IDoV= 1
 ScaDFX=  1.000000  1.000000  1.000000  1.000000
 FoFCou: FMM=F IPFlag=           0 FMFlag=      100000 FMFlg1=           0
         NFxFlg=           0 DoJE=T BraDBF=F KetDBF=T FulRan=T
         Omega=  0.000000  0.000000  1.000000  0.000000  0.000000 ICntrl=     500 IOpCl=  0
         NMat0=    1 NMatS0=    1 NMatT0=    0 NMatD0=    1 NMtDS0=    0 NMtDT0=    0
         I1Cent=           4 NGrid=           0.
 Symmetry not used in FoFCou.
 Harris En= -647.533690579970    
 Leave Link  401 at Wed May  3 10:15:13 2017, MaxMem=   33554432 cpu:       2.4
 (Enter /share/apps/gaussian09/g09/l502.exe)
 Closed shell SCF:
 Requested convergence on RMS density matrix=1.00D-08 within 128 cycles.
 Requested convergence on MAX density matrix=1.00D-06.
 Requested convergence on             energy=1.00D-06.
 No special actions if energy rises.
 Using DIIS extrapolation, IDIIS=  1040.
 Two-electron integral symmetry not used.
        50539 words used for storage of precomputed grid.
 IEnd=       87089 IEndB=       87089 NGot=    33554432 MDV=    33489836
 LenX=    33489836 LenY=    33483619
 Fock matrices will be formed incrementally for  20 cycles.
 Integral accuracy reduced to 1.0D-05 until final iterations.

 Cycle   1  Pass 0  IDiag  1:
 FoFJK:  IHMeth= 1 ICntrl=     0 DoSepK=T KAlg= 1 I1Cent= 0 FoldK=F
 FoFCou: FMM=F IPFlag=           0 FMFlag=      100000 FMFlg1=           0
         NFxFlg=           0 DoJE=T BraDBF=F KetDBF=F FulRan=T
         Omega=  0.000000  0.000000  1.000000  0.000000  0.000000 ICntrl=     500 IOpCl=  0
         NMat0=    1 NMatS0=    1 NMatT0=    0 NMatD0=    1 NMtDS0=    0 NMtDT0=    0
         I1Cent=           0 NGrid=           0.
 Symmetry not used in FoFCou.
 E= -664.759000753457    
 DIIS: error= 6.46D-02 at cycle   1 NSaved=   1.
 NSaved= 1 IEnMin= 1 EnMin= -664.759000753457     IErMin= 1 ErrMin= 6.46D-02
 ErrMax= 6.46D-02 EMaxC= 1.00D-01 BMatC= 6.54D-01 BMatP= 6.54D-01
 IDIUse=3 WtCom= 3.54D-01 WtEn= 6.46D-01
 Coeff-Com:  0.100D+01
 Coeff-En:   0.100D+01
 Coeff:      0.100D+01
 Gap=     0.619 Goal=   None    Shift=    0.000
 GapD=    0.619 DampG=2.000 DampE=0.500 DampFc=1.0000 IDamp=-1.
 RMSDP=7.87D-03 MaxDP=9.27D-02              OVMax= 9.44D-02

 Cycle   2  Pass 0  IDiag  1:
 RMSU=  5.56D-03    CP:  1.00D+00
 FoFJK:  IHMeth= 1 ICntrl=     0 DoSepK=T KAlg= 1 I1Cent= 0 FoldK=F
 E= -664.864646728305     Delta-E=       -0.105645974848 Rises=F Damp=F
 DIIS: error= 5.59D-02 at cycle   2 NSaved=   2.
 NSaved= 2 IEnMin= 2 EnMin= -664.864646728305     IErMin= 2 ErrMin= 5.59D-02
 ErrMax= 5.59D-02 EMaxC= 1.00D-01 BMatC= 1.75D-01 BMatP= 6.54D-01
 IDIUse=3 WtCom= 4.41D-01 WtEn= 5.59D-01
 Coeff-Com:  0.316D+00 0.684D+00
 Coeff-En:   0.245D+00 0.755D+00
 Coeff:      0.277D+00 0.723D+00
 Gap=     0.574 Goal=   None    Shift=    0.000
 RMSDP=4.06D-03 MaxDP=6.56D-02 DE=-1.06D-01 OVMax= 5.66D-02

 Cycle   3  Pass 0  IDiag  1:
 RMSU=  2.00D-03    CP:  1.01D+00  6.30D-01
 FoFJK:  IHMeth= 1 ICntrl=     0 DoSepK=T KAlg= 1 I1Cent= 0 FoldK=F
 E= -664.937034294285     Delta-E=       -0.072387565981 Rises=F Damp=F
 DIIS: error= 2.56D-02 at cycle   3 NSaved=   3.
 NSaved= 3 IEnMin= 3 EnMin= -664.937034294285     IErMin= 3 ErrMin= 2.56D-02
 ErrMax= 2.56D-02 EMaxC= 1.00D-01 BMatC= 3.94D-02 BMatP= 1.75D-01
 IDIUse=3 WtCom= 7.44D-01 WtEn= 2.56D-01
 Coeff-Com:  0.765D-01 0.352D+00 0.572D+00
 Coeff-En:   0.000D+00 0.159D+00 0.841D+00
 Coeff:      0.569D-01 0.302D+00 0.641D+00
 Gap=     0.554 Goal=   None    Shift=    0.000
 RMSDP=1.75D-03 MaxDP=3.92D-02 DE=-7.24D-02 OVMax= 2.80D-02

 Cycle   4  Pass 0  IDiag  1:
 RMSU=  4.48D-04    CP:  1.00D+00  7.37D-01  5.08D-01
 FoFJK:  IHMeth= 1 ICntrl=     0 DoSepK=T KAlg= 1 I1Cent= 0 FoldK=F
 E= -664.959926200904     Delta-E=       -0.022891906619 Rises=F Damp=F
 DIIS: error= 4.88D-03 at cycle   4 NSaved=   4.
 NSaved= 4 IEnMin= 4 EnMin= -664.959926200904     IErMin= 4 ErrMin= 4.88D-03
 ErrMax= 4.88D-03 EMaxC= 1.00D-01 BMatC= 1.67D-03 BMatP= 3.94D-02
 IDIUse=3 WtCom= 9.51D-01 WtEn= 4.88D-02
 Coeff-Com:  0.217D-02 0.336D-01 0.209D+00 0.755D+00
 Coeff-En:   0.000D+00 0.000D+00 0.000D+00 0.100D+01
 Coeff:      0.206D-02 0.320D-01 0.199D+00 0.767D+00
 Gap=     0.539 Goal=   None    Shift=    0.000
 RMSDP=3.28D-04 MaxDP=7.72D-03 DE=-2.29D-02 OVMax= 5.82D-03

 Cycle   5  Pass 0  IDiag  1:
 RMSU=  7.66D-05    CP:  1.00D+00  7.29D-01  6.13D-01  9.00D-01
 FoFJK:  IHMeth= 1 ICntrl=     0 DoSepK=T KAlg= 1 I1Cent= 0 FoldK=F
 E= -664.960898575399     Delta-E=       -0.000972374494 Rises=F Damp=F
 DIIS: error= 7.17D-04 at cycle   5 NSaved=   5.
 NSaved= 5 IEnMin= 5 EnMin= -664.960898575399     IErMin= 5 ErrMin= 7.17D-04
 ErrMax= 7.17D-04 EMaxC= 1.00D-01 BMatC= 6.93D-05 BMatP= 1.67D-03
 IDIUse=3 WtCom= 9.93D-01 WtEn= 7.17D-03
 Coeff-Com: -0.141D-02 0.313D-02 0.803D-01 0.389D+00 0.529D+00
 Coeff-En:   0.000D+00 0.000D+00 0.000D+00 0.000D+00 0.100D+01
 Coeff:     -0.140D-02 0.311D-02 0.797D-01 0.386D+00 0.533D+00
 Gap=     0.536 Goal=   None    Shift=    0.000
 RMSDP=5.34D-05 MaxDP=1.01D-03 DE=-9.72D-04 OVMax= 1.71D-03

 Cycle   6  Pass 0  IDiag  1:
 RMSU=  2.05D-05    CP:  1.00D+00  7.31D-01  6.13D-01  9.33D-01  6.64D-01
 FoFJK:  IHMeth= 1 ICntrl=     0 DoSepK=T KAlg= 1 I1Cent= 0 FoldK=F
 E= -664.960942048484     Delta-E=       -0.000043473085 Rises=F Damp=F
 DIIS: error= 9.18D-05 at cycle   6 NSaved=   6.
 NSaved= 6 IEnMin= 6 EnMin= -664.960942048484     IErMin= 6 ErrMin= 9.18D-05
 ErrMax= 9.18D-05 EMaxC= 1.00D-01 BMatC= 1.12D-06 BMatP= 6.93D-05
 IDIUse=1 WtCom= 1.00D+00 WtEn= 0.00D+00
 Coeff-Com: -0.627D-03-0.455D-02-0.104D-01-0.236D-01 0.607D-01 0.978D+00
 Coeff:     -0.627D-03-0.455D-02-0.104D-01-0.236D-01 0.607D-01 0.978D+00
 Gap=     0.536 Goal=   None    Shift=    0.000
 RMSDP=1.80D-05 MaxDP=1.81D-04 DE=-4.35D-05 OVMax= 3.49D-04

 Cycle   7  Pass 0  IDiag  1:
 RMSU=  5.98D-06    CP:  1.00D+00  7.31D-01  6.15D-01  9.53D-01  7.23D-01
                    CP:  1.05D+00
 FoFJK:  IHMeth= 1 ICntrl=     0 DoSepK=T KAlg= 1 I1Cent= 0 FoldK=F
 E= -664.960943451418     Delta-E=       -0.000001402935 Rises=F Damp=F
 DIIS: error= 1.94D-05 at cycle   7 NSaved=   7.
 NSaved= 7 IEnMin= 7 EnMin= -664.960943451418     IErMin= 7 ErrMin= 1.94D-05
 ErrMax= 1.94D-05 EMaxC= 1.00D-01 BMatC= 4.76D-08 BMatP= 1.12D-06
 IDIUse=1 WtCom= 1.00D+00 WtEn= 0.00D+00
 Coeff-Com: -0.478D-04-0.990D-03-0.511D-02-0.213D-01-0.174D-01 0.153D+00
 Coeff-Com:  0.892D+00
 Coeff:     -0.478D-04-0.990D-03-0.511D-02-0.213D-01-0.174D-01 0.153D+00
 Coeff:      0.892D+00
 Gap=     0.536 Goal=   None    Shift=    0.000
 RMSDP=4.04D-06 MaxDP=8.43D-05 DE=-1.40D-06 OVMax= 7.84D-05

 Initial convergence to 1.0D-05 achieved.  Increase integral accuracy.
 Cycle   8  Pass 1  IDiag  1:
 FoFJK:  IHMeth= 1 ICntrl=     0 DoSepK=T KAlg= 1 I1Cent= 0 FoldK=F
 E= -664.960947151184     Delta-E=       -0.000003699765 Rises=F Damp=F
 DIIS: error= 4.08D-05 at cycle   1 NSaved=   1.
 NSaved= 1 IEnMin= 1 EnMin= -664.960947151184     IErMin= 1 ErrMin= 4.08D-05
 ErrMax= 4.08D-05 EMaxC= 1.00D-01 BMatC= 4.42D-07 BMatP= 4.42D-07
 IDIUse=1 WtCom= 1.00D+00 WtEn= 0.00D+00
 Coeff-Com:  0.100D+01
 Coeff:      0.100D+01
 Gap=     0.536 Goal=   None    Shift=    0.000
 RMSDP=4.04D-06 MaxDP=8.43D-05 DE=-3.70D-06 OVMax= 1.66D-04

 Cycle   9  Pass 1  IDiag  1:
 RMSU=  8.53D-06    CP:  1.00D+00
 FoFJK:  IHMeth= 1 ICntrl=     0 DoSepK=T KAlg= 1 I1Cent= 0 FoldK=F
 E= -664.960947561764     Delta-E=       -0.000000410581 Rises=F Damp=F
 DIIS: error= 1.76D-05 at cycle   2 NSaved=   2.
 NSaved= 2 IEnMin= 2 EnMin= -664.960947561764     IErMin= 2 ErrMin= 1.76D-05
 ErrMax= 1.76D-05 EMaxC= 1.00D-01 BMatC= 3.91D-08 BMatP= 4.42D-07
 IDIUse=1 WtCom= 1.00D+00 WtEn= 0.00D+00
 Coeff-Com:  0.686D-01 0.931D+00
 Coeff:      0.686D-01 0.931D+00
 Gap=     0.536 Goal=   None    Shift=    0.000
 RMSDP=3.14D-06 MaxDP=7.07D-05 DE=-4.11D-07 OVMax= 4.67D-05

 Cycle  10  Pass 1  IDiag  1:
 RMSU=  2.21D-06    CP:  1.00D+00  9.70D-01
 FoFJK:  IHMeth= 1 ICntrl=     0 DoSepK=T KAlg= 1 I1Cent= 0 FoldK=F
 E= -664.960947575541     Delta-E=       -0.000000013777 Rises=F Damp=F
 DIIS: error= 1.91D-05 at cycle   3 NSaved=   3.
 NSaved= 3 IEnMin= 3 EnMin= -664.960947575541     IErMin= 2 ErrMin= 1.76D-05
 ErrMax= 1.91D-05 EMaxC= 1.00D-01 BMatC= 3.15D-08 BMatP= 3.91D-08
 IDIUse=1 WtCom= 1.00D+00 WtEn= 0.00D+00
 Coeff-Com: -0.417D-01 0.484D+00 0.558D+00
 Coeff:     -0.417D-01 0.484D+00 0.558D+00
 Gap=     0.536 Goal=   None    Shift=    0.000
 RMSDP=1.31D-06 MaxDP=3.19D-05 DE=-1.38D-08 OVMax= 1.96D-05

 Cycle  11  Pass 1  IDiag  1:
 RMSU=  5.59D-07    CP:  1.00D+00  1.03D+00  7.55D-01
 FoFJK:  IHMeth= 1 ICntrl=     0 DoSepK=T KAlg= 1 I1Cent= 0 FoldK=F
 E= -664.960947594889     Delta-E=       -0.000000019348 Rises=F Damp=F
 DIIS: error= 6.18D-07 at cycle   4 NSaved=   4.
 NSaved= 4 IEnMin= 4 EnMin= -664.960947594889     IErMin= 4 ErrMin= 6.18D-07
 ErrMax= 6.18D-07 EMaxC= 1.00D-01 BMatC= 1.05D-10 BMatP= 3.15D-08
 IDIUse=1 WtCom= 1.00D+00 WtEn= 0.00D+00
 Coeff-Com: -0.563D-02-0.536D-02 0.578D-02 0.101D+01
 Coeff:     -0.563D-02-0.536D-02 0.578D-02 0.101D+01
 Gap=     0.536 Goal=   None    Shift=    0.000
 RMSDP=2.87D-07 MaxDP=5.68D-06 DE=-1.93D-08 OVMax= 5.41D-06

 Cycle  12  Pass 1  IDiag  1:
 RMSU=  1.29D-07    CP:  1.00D+00  1.04D+00  7.80D-01  1.12D+00
 FoFJK:  IHMeth= 1 ICntrl=     0 DoSepK=T KAlg= 1 I1Cent= 0 FoldK=F
 E= -664.960947595083     Delta-E=       -0.000000000195 Rises=F Damp=F
 DIIS: error= 3.39D-07 at cycle   5 NSaved=   5.
 NSaved= 5 IEnMin= 5 EnMin= -664.960947595083     IErMin= 5 ErrMin= 3.39D-07
 ErrMax= 3.39D-07 EMaxC= 1.00D-01 BMatC= 2.76D-11 BMatP= 1.05D-10
 IDIUse=1 WtCom= 1.00D+00 WtEn= 0.00D+00
 Coeff-Com: -0.571D-03-0.207D-01-0.196D-01 0.310D+00 0.731D+00
 Coeff:     -0.571D-03-0.207D-01-0.196D-01 0.310D+00 0.731D+00
 Gap=     0.536 Goal=   None    Shift=    0.000
 RMSDP=7.27D-08 MaxDP=8.73D-07 DE=-1.95D-10 OVMax= 1.19D-06

 Cycle  13  Pass 1  IDiag  1:
 RMSU=  3.73D-08    CP:  1.00D+00  1.05D+00  7.88D-01  1.18D+00  1.00D+00
 FoFJK:  IHMeth= 1 ICntrl=     0 DoSepK=T KAlg= 1 I1Cent= 0 FoldK=F
 E= -664.960947595109     Delta-E=       -0.000000000025 Rises=F Damp=F
 DIIS: error= 1.95D-07 at cycle   6 NSaved=   6.
 NSaved= 6 IEnMin= 6 EnMin= -664.960947595109     IErMin= 6 ErrMin= 1.95D-07
 ErrMax= 1.95D-07 EMaxC= 1.00D-01 BMatC= 5.95D-12 BMatP= 2.76D-11
 IDIUse=1 WtCom= 1.00D+00 WtEn= 0.00D+00
 Coeff-Com:  0.631D-03-0.984D-02-0.104D-01 0.293D-02 0.311D+00 0.706D+00
 Coeff:      0.631D-03-0.984D-02-0.104D-01 0.293D-02 0.311D+00 0.706D+00
 Gap=     0.536 Goal=   None    Shift=    0.000
 RMSDP=3.09D-08 MaxDP=3.46D-07 DE=-2.51D-11 OVMax= 6.25D-07

 Cycle  14  Pass 1  IDiag  1:
 RMSU=  1.28D-08    CP:  1.00D+00  1.05D+00  7.91D-01  1.19D+00  1.10D+00
                    CP:  8.76D-01
 FoFJK:  IHMeth= 1 ICntrl=     0 DoSepK=T KAlg= 1 I1Cent= 0 FoldK=F
 E= -664.960947595109     Delta-E=        0.000000000000 Rises=F Damp=F
 DIIS: error= 3.14D-08 at cycle   7 NSaved=   7.
 NSaved= 7 IEnMin= 7 EnMin= -664.960947595109     IErMin= 7 ErrMin= 3.14D-08
 ErrMax= 3.14D-08 EMaxC= 1.00D-01 BMatC= 2.24D-13 BMatP= 5.95D-12
 IDIUse=1 WtCom= 1.00D+00 WtEn= 0.00D+00
 Coeff-Com:  0.175D-03-0.161D-03-0.216D-03-0.263D-01-0.151D-01 0.152D+00
 Coeff-Com:  0.889D+00
 Coeff:      0.175D-03-0.161D-03-0.216D-03-0.263D-01-0.151D-01 0.152D+00
 Coeff:      0.889D+00
 Gap=     0.536 Goal=   None    Shift=    0.000
 RMSDP=8.88D-09 MaxDP=1.15D-07 DE=-4.55D-13 OVMax= 2.43D-07

 SCF Done:  E(RwB97XD) =  -664.960947595     A.U. after   14 cycles
             Convg  =    0.8883D-08             -V/T =  2.0040
 KE= 6.623053478374D+02 PE=-2.114219507537D+03 EE= 5.214696312854D+02
 Leave Link  502 at Wed May  3 10:15:19 2017, MaxMem=   33554432 cpu:      49.9
 (Enter /share/apps/gaussian09/g09/l801.exe)
 Range of M.O.s used for correlation:     1    74
 NBasis=    74 NAE=    25 NBE=    25 NFC=     0 NFV=     0
 NROrb=     74 NOA=    25 NOB=    25 NVA=    49 NVB=    49
 Leave Link  801 at Wed May  3 10:15:19 2017, MaxMem=   33554432 cpu:       0.3
 (Enter /share/apps/gaussian09/g09/l1101.exe)
 Using compressed storage, NAtomX=     6.
 Will process   7 centers per pass.
 R6Disp: Adding dispersion energy 1st derivatives to the gradient.
 Leave Link 1101 at Wed May  3 10:15:19 2017, MaxMem=   33554432 cpu:       1.7
 (Enter /share/apps/gaussian09/g09/l1102.exe)
 Symmetrizing basis deriv contribution to polar:
 IMax=3 JMax=2 DiffMx= 0.00D+00
 Leave Link 1102 at Wed May  3 10:15:20 2017, MaxMem=   33554432 cpu:       0.6
 (Enter /share/apps/gaussian09/g09/l1110.exe)
 Forming Gx(P) for the SCF density, NAtomX=     6.
 Integral derivatives from FoFDir/FoFCou, PRISM(SPDF).
 Do as many integral derivatives as possible in FoFDir.
 G2DrvN: MDV=      33554280.
 G2DrvN: will do     7 centers at a time, making    1 passes doing MaxLOS=2.
 Calling FoFCou, ICntrl=  3107 FMM=F I1Cent=   0 AccDes= 0.00D+00.
 FoFJK:  IHMeth= 1 ICntrl=  3107 DoSepK=T KAlg= 1 I1Cent= 0 FoldK=F
 FoFCou: FMM=F IPFlag=           0 FMFlag=      100000 FMFlg1=           0
         NFxFlg=           0 DoJE=F BraDBF=F KetDBF=F FulRan=T
         Omega=  0.000000  0.000000  1.000000  0.000000  0.000000 ICntrl=    3507 IOpCl=  0
         NMat0=    1 NMatS0=    1 NMatT0=    0 NMatD0=    1 NMtDS0=    0 NMtDT0=    0
         I1Cent=           0 NGrid=           0.
 Symmetry not used in FoFCou.
 FoFDir/FoFCou used for L=0 through L=2.
 End of G2Drv Frequency-dependent properties file   721 does not exist.
 End of G2Drv Frequency-dependent properties file   722 does not exist.
 Leave Link 1110 at Wed May  3 10:15:22 2017, MaxMem=   33554432 cpu:      17.4
 (Enter /share/apps/gaussian09/g09/l1002.exe)
 Minotr:  Closed shell wavefunction.
          IDoAtm=111111
          Direct CPHF calculation.
          Differentiating once with respect to electric field.
                with respect to dipole field.
          Differentiating once with respect to nuclear coordinates.
          Requested convergence is 1.0D-08 RMS, and 1.0D-07 maximum.
          Secondary convergence is 1.0D-12 RMS, and 1.0D-12 maximum.
          NewPWx=T KeepS1=F KeepF1=F KeepIn=T MapXYZ=F SortEE=F KeepMc=T.
          MDV=      33554368 using IRadAn=       2.
 Generate precomputed XC quadrature information.
          Solving linear equations simultaneously, MaxMat=       0.
 FoFJK:  IHMeth= 1 ICntrl=     0 DoSepK=T KAlg= 1 I1Cent= 0 FoldK=F
 FoFCou: FMM=F IPFlag=           0 FMFlag=      100000 FMFlg1=           0
         NFxFlg=           0 DoJE=F BraDBF=F KetDBF=F FulRan=T
         Omega=  0.000000  0.000000  1.000000  0.000000  0.000000 ICntrl=     500 IOpCl=  0
         NMat0=   21 NMatS0=   21 NMatT0=    0 NMatD0=   21 NMtDS0=    0 NMtDT0=    0
         I1Cent=           0 NGrid=           0.
 Symmetry not used in FoFCou.
          There are    21 degrees of freedom in the 1st order CPHF.  IDoFFX=5.
     18 vectors produced by pass  0 Test12= 5.83D-15 4.76D-09 XBig12= 5.98D+00 7.74D-01.
 AX will form    18 AO Fock derivatives at one time.
 FoFJK:  IHMeth= 1 ICntrl=     0 DoSepK=T KAlg= 1 I1Cent= 0 FoldK=F
     18 vectors produced by pass  1 Test12= 5.83D-15 4.76D-09 XBig12= 6.75D-01 1.82D-01.
 FoFJK:  IHMeth= 1 ICntrl=     0 DoSepK=T KAlg= 1 I1Cent= 0 FoldK=F
     18 vectors produced by pass  2 Test12= 5.83D-15 4.76D-09 XBig12= 1.31D-02 3.38D-02.
 FoFJK:  IHMeth= 1 ICntrl=     0 DoSepK=T KAlg= 1 I1Cent= 0 FoldK=F
     18 vectors produced by pass  3 Test12= 5.83D-15 4.76D-09 XBig12= 7.89D-05 2.22D-03.
 FoFJK:  IHMeth= 1 ICntrl=     0 DoSepK=T KAlg= 1 I1Cent= 0 FoldK=F
     18 vectors produced by pass  4 Test12= 5.83D-15 4.76D-09 XBig12= 6.32D-07 2.05D-04.
 FoFJK:  IHMeth= 1 ICntrl=     0 DoSepK=T KAlg= 1 I1Cent= 0 FoldK=F
     18 vectors produced by pass  5 Test12= 5.83D-15 4.76D-09 XBig12= 2.62D-09 7.70D-06.
 FoFJK:  IHMeth= 1 ICntrl=     0 DoSepK=T KAlg= 1 I1Cent= 0 FoldK=F
     10 vectors produced by pass  6 Test12= 5.83D-15 4.76D-09 XBig12= 1.50D-11 7.33D-07.
 FoFJK:  IHMeth= 1 ICntrl=     0 DoSepK=T KAlg= 1 I1Cent= 0 FoldK=F
      4 vectors produced by pass  7 Test12= 5.83D-15 4.76D-09 XBig12= 7.34D-14 5.81D-08.
 FoFJK:  IHMeth= 1 ICntrl=     0 DoSepK=T KAlg= 1 I1Cent= 0 FoldK=F
 Inverted reduced A of dimension   122 with in-core refinement.
 FullF1:  Do perturbations    1 to     3.
 FoFJK:  IHMeth= 1 ICntrl=     0 DoSepK=T KAlg= 1 I1Cent= 0 FoldK=F
 Isotropic polarizability for W=    0.000000       19.38 Bohr**3.
 End of Minotr Frequency-dependent properties file   721 does not exist.
 End of Minotr Frequency-dependent properties file   722 does not exist.
 Leave Link 1002 at Wed May  3 10:15:27 2017, MaxMem=   33554432 cpu:      42.9
 (Enter /share/apps/gaussian09/g09/l601.exe)
 Copying SCF densities to generalized density rwf, IOpCl= 0 IROHF=0.

 **********************************************************************

            Population analysis using the SCF density.

 **********************************************************************

 Alpha  occ. eigenvalues --  -66.44921 -24.84699 -24.84536 -24.84529 -19.30503
 Alpha  occ. eigenvalues --   -5.54419  -3.89078  -3.89022  -3.88847  -1.34028
 Alpha  occ. eigenvalues --   -1.31335  -1.31197  -1.16395  -0.71552  -0.64780
 Alpha  occ. eigenvalues --   -0.60902  -0.60658  -0.56524  -0.55406  -0.55308
 Alpha  occ. eigenvalues --   -0.53521  -0.53256  -0.51382  -0.49651  -0.47010
 Alpha virt. eigenvalues --    0.06635   0.13392   0.15707   0.17166   0.20085
 Alpha virt. eigenvalues --    0.30472   0.30947   0.32957   0.34312   0.45034
 Alpha virt. eigenvalues --    0.50852   0.53092   0.59346   0.60863   0.69083
 Alpha virt. eigenvalues --    0.75556   0.86794   0.87214   0.94940   1.28831
 Alpha virt. eigenvalues --    1.29852   1.31722   1.32288   1.32964   1.33220
 Alpha virt. eigenvalues --    1.34119   1.34330   1.40303   1.47389   1.50334
 Alpha virt. eigenvalues --    1.53129   1.58515   1.65881   2.06048   2.14710
 Alpha virt. eigenvalues --    2.17119   2.28745   2.34996   2.65752   2.70676
 Alpha virt. eigenvalues --    2.78626   2.83156   2.99392   3.00688   3.01304
 Alpha virt. eigenvalues --    3.31146   4.30123   9.82536  43.27577
          Condensed to atoms (all electrons):
              1          2          3          4          5          6
     1  Si  11.483886   0.397973   0.348714   0.358257   0.352825  -0.025881
     2  O    0.397973   7.797874  -0.012896  -0.010371  -0.012587   0.329333
     3  F    0.348714  -0.012896   8.987600  -0.006227  -0.006448  -0.000428
     4  F    0.358257  -0.010371  -0.006227   8.967049  -0.007275  -0.000151
     5  F    0.352825  -0.012587  -0.006448  -0.007275   8.981764  -0.000822
     6  H   -0.025881   0.329333  -0.000428  -0.000151  -0.000822   0.373791
 Mulliken atomic charges:
              1
     1  Si   1.084224
     2  O   -0.489326
     3  F   -0.310315
     4  F   -0.301283
     5  F   -0.307458
     6  H    0.324157
 Sum of Mulliken atomic charges =   0.00000
 Mulliken charges with hydrogens summed into heavy atoms:
              1
     1  Si   1.084224
     2  O   -0.165169
     3  F   -0.310315
     4  F   -0.301283
     5  F   -0.307458
 Sum of Mulliken charges with hydrogens summed into heavy atoms =   0.00000
 APT atomic charges:
              1
     1  Si   2.325645
     2  O   -0.866553
     3  F   -0.612385
     4  F   -0.589804
     5  F   -0.610221
     6  H    0.353317
 Sum of APT charges=   0.00000
 APT Atomic charges with hydrogens summed into heavy atoms:
              1
     1  Si   2.325645
     2  O   -0.513235
     3  F   -0.612385
     4  F   -0.589804
     5  F   -0.610221
     6  H    0.000000
 Sum of APT charges=   0.00000
 Electronic spatial extent (au):  <R**2>=           1244.5731
 Charge=              0.0000 electrons
 Dipole moment (field-independent basis, Debye):
    X=              0.1428    Y=             -0.1577    Z=              2.5425  Tot=              2.5513
 Quadrupole moment (field-independent basis, Debye-Ang):
   XX=            -35.6554   YY=            -35.8929   ZZ=            -33.3456
   XY=              0.0231   XZ=             -3.9386   YZ=              1.4945
 Traceless Quadrupole moment (field-independent basis, Debye-Ang):
   XX=             -0.6908   YY=             -0.9282   ZZ=              1.6190
   XY=              0.0231   XZ=             -3.9386   YZ=              1.4945
 Octapole moment (field-independent basis, Debye-Ang**2):
  XXX=            189.3084  YYY=            -42.4926  ZZZ=            123.0899  XYY=             58.0804
  XXY=            -14.6742  XXZ=             46.1921  XZZ=             56.3826  YZZ=            -16.7629
  YYZ=             40.3062  XYZ=             -2.0300
 Hexadecapole moment (field-independent basis, Debye-Ang**3):
 XXXX=           -810.6413 YYYY=           -176.4251 ZZZZ=           -424.8204 XXXY=             75.6831
 XXXZ=           -230.0502 YYYX=             67.7122 YYYZ=             39.4798 ZZZX=           -207.0483
 ZZZY=             62.4025 XXYY=           -145.0023 XXZZ=           -186.5220 YYZZ=            -99.9652
 XXYZ=             17.4169 YYXZ=            -67.2074 ZZXY=             26.5435
 N-N= 2.654835808191D+02 E-N=-2.114219504267D+03  KE= 6.623053478374D+02
  Exact polarizability:  18.435   0.334  18.876   0.555   0.405  20.820
 Approx polarizability:  18.632   0.213  19.115   0.139  -0.334  20.113
 No NMR shielding tensors so no spin-rotation constants.
 Leave Link  601 at Wed May  3 10:15:27 2017, MaxMem=   33554432 cpu:       1.3
 (Enter /share/apps/gaussian09/g09/l701.exe)
 Compute integral second derivatives.
 ... and contract with generalized density number  0.
 R6Disp: Adding dispersion energy 2nd derivatives to the Hessian.
 Leave Link  701 at Wed May  3 10:15:28 2017, MaxMem=   33554432 cpu:       2.7
 (Enter /share/apps/gaussian09/g09/l702.exe)
 L702 exits ... SP integral derivatives will be done elsewhere.
 Leave Link  702 at Wed May  3 10:15:28 2017, MaxMem=   33554432 cpu:       0.3
 (Enter /share/apps/gaussian09/g09/l703.exe)
 Compute integral second derivatives, UseDBF=F ICtDFT=           0.
 Integral derivatives from FoFDir, PRISM(SPDF).
 Calling FoFJK, ICntrl=    100127 FMM=F ISym2X=0 I1Cent= 0 IOpClX= 0 NMat=1 NMatS=1 NMatT=0.
 FoFJK:  IHMeth= 1 ICntrl=100127 DoSepK=T KAlg= 1 I1Cent= 0 FoldK=F
 FoFCou: FMM=F IPFlag=           0 FMFlag=      100000 FMFlg1=         800
         NFxFlg=           0 DoJE=F BraDBF=F KetDBF=F FulRan=T
         Omega=  0.000000  0.000000  1.000000  0.000000  0.000000 ICntrl=  100527 IOpCl=  0
         NMat0=    1 NMatS0=    1 NMatT0=    0 NMatD0=    1 NMtDS0=    0 NMtDT0=    0
         I1Cent=           0 NGrid=           0.
 Symmetry not used in FoFCou.
 Leave Link  703 at Wed May  3 10:15:33 2017, MaxMem=   33554432 cpu:      43.8
 (Enter /share/apps/gaussian09/g09/l716.exe)
 Dipole        = 5.61878004D-02-6.20325569D-02 1.00028000D+00
 Polarizability= 1.84352200D+01 3.33968147D-01 1.88761923D+01
                 5.55089427D-01 4.04905109D-01 2.08196643D+01
 Full mass-weighted force constant matrix:
 Low frequencies ---   -0.0005   -0.0003    0.0000    0.0000    0.0000    0.0004
 Low frequencies ---    0.0040    0.0044    0.0076
 Harmonic frequencies (cm**-1), IR intensities (KM/Mole), Raman scattering
 activities (A**4/AMU), depolarization ratios for plane and unpolarized
 incident light, reduced masses (AMU), force constants (mDyne/A),
 and normal coordinates:
                     1                      2                      3
                     A                      A                      A
 Frequencies --     0.0040                 0.0044                 0.0076
 Red. masses --***********            ***********            ***********
 Frc consts  --     0.0268                 0.3823                 1.2935
 IR Inten    --     0.0000                 0.0000                 0.0000
  Atom  AN      X      Y      Z        X      Y      Z        X      Y      Z
     1  14    -0.06   0.06  -0.01    -0.18  -0.15   0.17    -0.14  -0.22  -0.36
     2   8    -0.13   0.14  -0.04    -0.34  -0.27   0.32    -0.12  -0.20  -0.35
     3   9    -0.02   0.08  -0.04     0.30   0.01  -0.12     0.17  -0.29   0.12
     4   9     0.09  -0.04  -0.01    -0.09  -0.25   0.20     0.16   0.23  -0.21
     5   9    -0.07  -0.04   0.05    -0.21   0.25  -0.07    -0.34   0.06   0.10
     6   1    -0.81   0.53   0.04    -0.17  -0.45   0.27    -0.26  -0.21  -0.37
                     4                      5                      6
                     A                      A                      A
 Frequencies --   125.2314               190.9021               226.4300
 Red. masses --     1.1802                 5.7081                 4.6298
 Frc consts  --     0.0109                 0.1226                 0.1399
 IR Inten    --    85.7696                 4.3651                71.2173
  Atom  AN      X      Y      Z        X      Y      Z        X      Y      Z
     1  14     0.00   0.00   0.00     0.03   0.02  -0.02     0.03  -0.03   0.00
     2   8     0.06  -0.08   0.03     0.37   0.26  -0.33     0.36  -0.33   0.06
     3   9     0.00   0.00   0.00     0.00   0.00   0.00     0.00   0.00   0.00
     4   9     0.00   0.00   0.00     0.00   0.00   0.00     0.00   0.00   0.00
     5   9     0.00   0.00   0.00     0.00   0.00   0.00     0.00   0.00   0.00
     6   1     0.84  -0.54  -0.06     0.58   0.56  -0.20    -0.85   0.15   0.11
                     7                      8                      9
                     A                      A                      A
 Frequencies --   383.0888               676.8260               716.7570
 Red. masses --    12.9611                 2.7994                27.5803
 Frc consts  --     1.1207                 0.7556                 8.3482
 IR Inten    --    49.9582               108.3341               188.3749
  Atom  AN      X      Y      Z        X      Y      Z        X      Y      Z
     1  14     0.16   0.26   0.40     0.08   0.18  -0.15     0.88  -0.44  -0.08
     2   8     0.20   0.29   0.48     0.03   0.07   0.02    -0.11   0.07   0.03
     3   9     0.00   0.00   0.00     0.00   0.00   0.00     0.00   0.00   0.00
     4   9     0.00   0.00   0.00     0.00   0.00   0.00     0.00   0.00   0.00
     5   9     0.00   0.00   0.00     0.00   0.00   0.00     0.00   0.00   0.00
     6   1     0.19   0.34   0.50    -0.44  -0.79  -0.34     0.08  -0.01   0.02
                    10                     11                     12
                     A                      A                      A
 Frequencies --   822.9213              1016.4670              3969.7681
 Red. masses --     2.0092                 7.8360                 1.0672
 Frc consts  --     0.8016                 4.7702                 9.9085
 IR Inten    --   261.9166               183.4557               141.1908
  Atom  AN      X      Y      Z        X      Y      Z        X      Y      Z
     1  14     0.06   0.13  -0.08     0.11   0.15   0.31     0.00   0.00   0.00
     2   8    -0.06  -0.12  -0.02    -0.14  -0.21  -0.40     0.00   0.02  -0.06
     3   9     0.00   0.00   0.00     0.00   0.00   0.00     0.00   0.00   0.00
     4   9     0.00   0.00   0.00     0.00   0.00   0.00     0.00   0.00   0.00
     5   9     0.00   0.00   0.00     0.00   0.00   0.00     0.00   0.00   0.00
     6   1     0.44   0.80   0.35    -0.31  -0.51  -0.54    -0.09  -0.33   0.94

 -------------------
 - Thermochemistry -
 -------------------
 Temperature   373.150 Kelvin.  Pressure   1.00000 Atm.
 Atom     1 has atomic number 14 and mass  27.97693
 Atom     2 has atomic number  8 and mass  15.99491
 Atom     3 has atomic number  9 and mass**********
 Atom     4 has atomic number  9 and mass**********
 Atom     5 has atomic number  9 and mass**********
 Atom     6 has atomic number  1 and mass   1.00783
 Molecular mass: *********** amu.
 Principal axes and moments of inertia in atomic units:
                           1         2         3
     Eigenvalues --  ******************************
           X           -0.49011   0.81407   0.31159
           Y            0.81024   0.29365   0.50723
           Z           -0.32142  -0.50106   0.80351
 This molecule is an asymmetric top.
 Rotational symmetry number  1.
 Warning -- assumption of classical behavior for rotation
           may cause significant error
 Rotational temperatures (Kelvin)      0.00000     0.00000     0.00000
 Rotational constants (GHZ):           0.00000     0.00000     0.00000
 Zero-point vibrational energy      48618.7 (Joules/Mol)
                                   11.62014 (Kcal/Mol)
 Warning -- explicit consideration of   9 degrees of freedom as
           vibrations may cause significant error
 Vibrational temperatures:      0.01     0.01     0.01   180.18   274.67
          (Kelvin)            325.78   551.18   973.80  1031.25  1184.00
                             1462.47  5711.60
 
 Zero-point correction=                           0.018518 (Hartree/Particle)
 Thermal correction to Energy=                    0.029306
 Thermal correction to Enthalpy=                  0.030487
 Thermal correction to Gibbs Free Energy=        -0.135963
 Sum of electronic and zero-point Energies=           -664.942430
 Sum of electronic and thermal Energies=              -664.931642
 Sum of electronic and thermal Enthalpies=            -664.930460
 Sum of electronic and thermal Free Energies=         -665.096910
 
                     E (Thermal)             CV                S
                      KCal/Mol        Cal/Mol-Kelvin    Cal/Mol-Kelvin
 Total                   18.390             23.094            279.912
 Electronic               0.000              0.000              0.000
 Translational            1.112              2.981            105.880
 Rotational               1.112              2.981             92.092
 Vibrational             16.165             17.132             81.940
 Vibration     1          0.742              1.987             24.000
 Vibration     2          0.742              1.987             23.797
 Vibration     3          0.742              1.987             22.727
 Vibration     4          0.756              1.949              3.453
 Vibration     5          0.775              1.900              2.640
 Vibration     6          0.788              1.866              2.319
 Vibration     7          0.872              1.662              1.383
 Vibration     8          1.121              1.160              0.564
 Vibration     9          1.163              1.090              0.499
                       Q            Log10(Q)             Ln(Q)
 Total Bot       0.930529D+50         49.968730        115.057252
 Total V=0       0.594805D+57         56.774375        130.727829
 Vib (Bot)       0.275564D+09          8.440222         19.434329
 Vib (Bot)    1  0.646707D+05          4.810707         11.077063
 Vib (Bot)    2  0.584016D+05          4.766425         10.975099
 Vib (Bot)    3  0.340881D+05          4.532603         10.436704
 Vib (Bot)    4  0.205100D+01          0.311966          0.718329
 Vib (Bot)    5  0.132837D+01          0.123320          0.283954
 Vib (Bot)    6  0.110981D+01          0.045250          0.104192
 Vib (Bot)    7  0.619161D+00         -0.208196         -0.479389
 Vib (Bot)    8  0.292751D+00         -0.533502         -1.228434
 Vib (Bot)    9  0.268023D+00         -0.571828         -1.316682
 Vib (V=0)       0.176144D+16         15.245867         35.104905
 Vib (V=0)    1  0.646712D+05          4.810711         11.077070
 Vib (V=0)    2  0.584021D+05          4.766429         10.975108
 Vib (V=0)    3  0.340886D+05          4.532609         10.436719
 Vib (V=0)    4  0.261107D+01          0.416818          0.959760
 Vib (V=0)    5  0.191936D+01          0.283155          0.651990
 Vib (V=0)    6  0.171725D+01          0.234832          0.540721
 Vib (V=0)    7  0.129584D+01          0.112551          0.259159
 Vib (V=0)    8  0.107940D+01          0.033182          0.076404
 Vib (V=0)    9  0.106731D+01          0.028289          0.065138
 Electronic      0.100000D+01          0.000000          0.000000
 Translational   0.113177D+23         22.053759         50.780656
 Rotational      0.298366D+20         19.474749         44.842268
 
                                                         Title Card Required
                                                             IR Spectrum
 
     3                                                                                              1                                
     9                                                                                              0     8   76        3    21 1    
     7                                                                                              1     2   17        8    29 2    
     0                                                                                              6     3   77        3    61 5    
 
     X                                                                                              X     X   XX        X    XX X    
     X                                                                                              X     X   XX        X    X  X    
     X                                                                                              X     X   XX        X    X  X    
     X                                                                                              X     X   XX        X    X  X    
     X                                                                                              X     X   XX             X  X    
     X                                                                                              X     X   XX                X    
     X                                                                                              X     X   XX                X    
     X                                                                                              X     X   XX                     
     X                                                                                              X     X   X                      
     X                                                                                              X     X   X                      
     X                                                                                              X     X   X                      
                                                                                                    X     X   X                      
                                                                                                    X     X   X                      
                                                                                                    X     X   X                      
                                                                                                          X                          
                                                                                                          X                          
                                                                                                          X                          
                                                                                                          X                          
                                                                                                          X                          
                                                                                                          X                          
 
 -------------------------------------------------------------------
 Center     Atomic                   Forces (Hartrees/Bohr)
 Number     Number              X              Y              Z
 -------------------------------------------------------------------
      1       14          -0.000000598   -0.000000909    0.000000376
      2        8          -0.000000096    0.000001221   -0.000001203
      3        9          -0.002443813    0.001258682    0.000162534
      4        9           0.002077253    0.001154729   -0.001415985
      5        9           0.000366248   -0.002413209    0.001254202
      6        1           0.000001006   -0.000000513    0.000000076
 -------------------------------------------------------------------
 Cartesian Forces:  Max     0.002443813 RMS     0.001124649
 Z-matrix is all fixed cartesians, so copy forces.
 Force constants in Cartesian coordinates: 
                1             2             3             4             5 
      1  0.548095D+00
      2  0.105507D-01  0.552217D+00
      3  0.119857D-01 -0.131821D-02  0.596278D+00
      4 -0.694960D-01 -0.527338D-01 -0.696666D-01  0.730686D-01
      5 -0.500518D-01 -0.117642D+00 -0.102620D+00  0.784928D-01  0.195545D+00
      6 -0.831170D-01 -0.128809D+00 -0.235902D+00  0.423842D-01 -0.424719D-01
      7 -0.713950D-01  0.960495D-01 -0.152835D-02  0.781003D-02 -0.293676D-02
      8  0.970553D-01 -0.300458D+00  0.551584D-02  0.329589D-02 -0.134328D-01
      9 -0.763337D-03  0.250132D-02 -0.379883D-01  0.107788D-02 -0.177495D-01
     10 -0.659655D-01 -0.435489D-01  0.844321D-01  0.474015D-02 -0.266244D-03
     11 -0.435999D-01 -0.967975D-01  0.119338D+00 -0.410371D-03  0.491280D-02
     12  0.864590D-01  0.121157D+00 -0.263369D+00  0.219711D-02  0.545797D-02
     13 -0.340870D+00 -0.967380D-02 -0.122155D-01 -0.822755D-02 -0.336559D-02
     14 -0.106097D-01 -0.363153D-01  0.695309D-03 -0.906405D-02  0.490345D-02
     15 -0.160718D-01  0.622925D-04 -0.379746D-01 -0.163109D-01 -0.556049D-02
     16 -0.368274D-03 -0.643596D-03 -0.130072D-01 -0.789527D-02 -0.218725D-01
     17 -0.334466D-02 -0.100428D-02 -0.216112D-01 -0.195805D-01 -0.742859D-01
     18  0.150747D-02  0.640579D-02 -0.210442D-01  0.403183D-01  0.162943D+00
                6             7             8             9            10 
      6  0.742499D+00
      7 -0.287173D-02  0.686527D-01
      8 -0.822441D-02 -0.108842D+00  0.328462D+00
      9  0.948222D-03  0.252371D-02 -0.486084D-02  0.278865D-01
     10 -0.390829D-02  0.643848D-02  0.401720D-02 -0.185291D-02  0.650000D-01
     11 -0.632723D-02 -0.253691D-02 -0.113931D-01  0.170623D-01  0.500395D-01
     12 -0.219012D-01  0.253051D-02  0.510260D-02 -0.104884D-02 -0.956604D-01
     13 -0.707765D-02 -0.106167D-01  0.426121D-02 -0.722697D-03 -0.117508D-01
     14 -0.660090D-02  0.183918D-01 -0.169580D-02  0.101131D-02 -0.959184D-02
     15  0.164881D-05 -0.485878D-03  0.350537D-03  0.743189D-02  0.175717D-01
     16  0.545905D-01 -0.889551D-03  0.211965D-03 -0.262646D-03  0.153775D-02
     17  0.192433D+00 -0.125970D-03 -0.148298D-02  0.203547D-02 -0.649720D-03
     18 -0.485646D+00 -0.168256D-03  0.211626D-02  0.277050D-02 -0.582212D-03
               11            12            13            14            15 
     11  0.979312D-01
     12 -0.134081D+00  0.286586D+00
     13 -0.293844D-02  0.432251D-02  0.373152D+00
     14  0.489034D-02  0.441260D-02  0.120119D-01  0.292288D-01
     15  0.488699D-02 -0.619082D-03  0.138275D-01  0.141445D-03  0.290210D-01
     16 -0.553960D-03  0.151340D-03 -0.168618D-02 -0.113806D-02  0.146927D-02
     17  0.456218D-03 -0.204981D-02 -0.295264D-03 -0.101152D-02  0.119232D-03
     18 -0.879127D-03  0.351380D-03  0.186586D-02  0.340242D-03  0.213913D-02
               16            17            18 
     16  0.930153D-02
     17  0.239961D-01  0.773284D-01
     18 -0.429412D-01 -0.170927D+00  0.501429D+00
 Leave Link  716 at Wed May  3 10:15:33 2017, MaxMem=   33554432 cpu:       0.7
 (Enter /share/apps/gaussian09/g09/l103.exe)

 GradGradGradGradGradGradGradGradGradGradGradGradGradGradGradGradGradGrad
 Berny optimization.
 Search for a local minimum.
 Step number   1 out of a maximum of    2
 All quantities printed in internal units (Hartrees-Bohrs-Radians)
 Second derivative matrix not updated -- analytic derivatives used.
 The second derivative matrix:
                          X1        Y1        Z1        X2        Y2
           X1           0.54810
           Y1           0.01055   0.55222
           Z1           0.01199  -0.00132   0.59628
           X2          -0.06950  -0.05273  -0.06967   0.07307
           Y2          -0.05005  -0.11764  -0.10262   0.07849   0.19554
           Z2          -0.08312  -0.12881  -0.23590   0.04238  -0.04247
           X3          -0.07139   0.09605  -0.00153   0.00781  -0.00294
           Y3           0.09706  -0.30046   0.00552   0.00330  -0.01343
           Z3          -0.00076   0.00250  -0.03799   0.00108  -0.01775
           X4          -0.06597  -0.04355   0.08443   0.00474  -0.00027
           Y4          -0.04360  -0.09680   0.11934  -0.00041   0.00491
           Z4           0.08646   0.12116  -0.26337   0.00220   0.00546
           X5          -0.34087  -0.00967  -0.01222  -0.00823  -0.00337
           Y5          -0.01061  -0.03632   0.00070  -0.00906   0.00490
           Z5          -0.01607   0.00006  -0.03797  -0.01631  -0.00556
           X6          -0.00037  -0.00064  -0.01301  -0.00790  -0.02187
           Y6          -0.00334  -0.00100  -0.02161  -0.01958  -0.07429
           Z6           0.00151   0.00641  -0.02104   0.04032   0.16294
                          Z2        X3        Y3        Z3        X4
           Z2           0.74250
           X3          -0.00287   0.06865
           Y3          -0.00822  -0.10884   0.32846
           Z3           0.00095   0.00252  -0.00486   0.02789
           X4          -0.00391   0.00644   0.00402  -0.00185   0.06500
           Y4          -0.00633  -0.00254  -0.01139   0.01706   0.05004
           Z4          -0.02190   0.00253   0.00510  -0.00105  -0.09566
           X5          -0.00708  -0.01062   0.00426  -0.00072  -0.01175
           Y5          -0.00660   0.01839  -0.00170   0.00101  -0.00959
           Z5           0.00000  -0.00049   0.00035   0.00743   0.01757
           X6           0.05459  -0.00089   0.00021  -0.00026   0.00154
           Y6           0.19243  -0.00013  -0.00148   0.00204  -0.00065
           Z6          -0.48565  -0.00017   0.00212   0.00277  -0.00058
                          Y4        Z4        X5        Y5        Z5
           Y4           0.09793
           Z4          -0.13408   0.28659
           X5          -0.00294   0.00432   0.37315
           Y5           0.00489   0.00441   0.01201   0.02923
           Z5           0.00489  -0.00062   0.01383   0.00014   0.02902
           X6          -0.00055   0.00015  -0.00169  -0.00114   0.00147
           Y6           0.00046  -0.00205  -0.00030  -0.00101   0.00012
           Z6          -0.00088   0.00035   0.00187   0.00034   0.00214
                          X6        Y6        Z6
           X6           0.00930
           Y6           0.02400   0.07733
           Z6          -0.04294  -0.17093   0.50143
 ITU=  0
     Eigenvalues ---    0.00086   0.01764   0.04214   0.04759   0.08718
     Eigenvalues ---    0.09806   0.12723   0.36990   0.75641   0.84651
     Eigenvalues ---    0.88154   1.20778
 Angle between quadratic step and forces=  67.67 degrees.
 Linear search not attempted -- first point.
 TrRot=  0.023114 -0.024020 -0.027387 -0.588704  0.008560  0.586322
 Variable       Old X    -DE/DX   Delta X   Delta X   Delta X     New X
                                 (Linear)    (Quad)   (Total)
    X1       -3.29337   0.00000   0.00000   0.00984   0.01897  -3.27439
    Y1        0.75725   0.00000   0.00000   0.00395  -0.00170   0.75556
    Z1       -2.22688   0.00000   0.00000  -0.00672  -0.00701  -2.23389
    X2       -2.26174   0.00000   0.00000   0.03094   0.06078  -2.20096
    Y2        2.37148   0.00000   0.00000  -0.00009  -0.01952   2.35196
    Z2        0.15021   0.00000   0.00000  -0.01315  -0.01340   0.13681
    X3       -2.25904  -0.00244   0.00000  -0.03942  -0.03705  -2.29609
    Y3       -2.11562   0.00126   0.00000  -0.00922  -0.01729  -2.13291
    Z3       -2.17653   0.00016   0.00000  -0.03000  -0.05098  -2.22751
    X4       -2.35237   0.00208   0.00000   0.03051   0.02467  -2.32770
    Y4        2.07631   0.00115   0.00000   0.01889   0.02306   2.09938
    Z4       -4.78660  -0.00142   0.00000   0.00360   0.00286  -4.78374
    X5       -6.33818   0.00037   0.00000   0.00937   0.01776  -6.32041
    Y5        0.66491  -0.00241   0.00000  -0.04188  -0.03999   0.62492
    Z5       -2.34996   0.00125   0.00000   0.04661   0.06739  -2.28257
    X6       -2.44194   0.00000   0.00000  -0.12570  -0.08513  -2.52707
    Y6        1.72976   0.00000   0.00000   0.08211   0.05544   1.78520
    Z6        1.82983   0.00000   0.00000   0.00171   0.00115   1.83097
         Item               Value     Threshold  Converged?
 Maximum Force            0.002444     0.000450     NO 
 RMS     Force            0.001125     0.000300     NO 
 Maximum Displacement     0.085131     0.001800     NO 
 RMS     Displacement     0.038632     0.001200     NO 
 Predicted change in Energy=-1.569235D-04
 GradGradGradGradGradGradGradGradGradGradGradGradGradGradGradGradGradGrad

 Leave Link  103 at Wed May  3 10:15:34 2017, MaxMem=   33554432 cpu:       0.1
 (Enter /share/apps/gaussian09/g09/l9999.exe)
 1\1\GINC-COMPUTE-0-5\Freq\RwB97XD\Gen\F3H1O1Si1\CRAIGV\03-May-2017\0\\
 #p wb97xd/gen nosymm geom=connectivity freq temp=373.15\\Title Card Re
 quired\\0,1\Si,-1.742775,0.400722,-1.178414\O,-1.196862,1.254934,0.079
 489\F,-1.195433,-1.11954,-1.151769\F,-1.244818,1.098738,-2.532962\F,-3
 .354018,0.351855,-1.243545\H,-1.292218,0.91535,0.968303\\Version=EM64L
 -G09RevC.01\HF=-664.9609476\RMSD=8.883e-09\RMSF=1.125e-03\ZeroPoint=0.
 0185179\Thermal=0.0293057\Dipole=0.0561878,-0.0620326,1.00028\DipoleDe
 riv=2.2425618,0.0413689,0.1346179,0.0429908,2.2667005,0.1922264,0.1070
 922,0.140552,2.4676727,-0.774371,-0.0325199,-0.1640664,-0.0340116,-0.7
 643781,-0.26004,-0.1488463,-0.2390209,-1.0609089,-0.5182283,0.0894856,
 -0.0050872,0.0799307,-0.7851882,-0.0546681,-0.0088946,-0.0270822,-0.53
 37379,-0.5166564,-0.0359795,0.0613037,-0.0374911,-0.537004,0.0911679,0
 .0614822,0.0830367,-0.7157509,-0.8019479,-0.0331695,-0.0532523,-0.0218
 713,-0.4957451,-0.0192803,-0.0417655,-0.0167795,-0.5329698,0.3686417,-
 0.0291856,0.0264843,-0.0295474,0.3156149,0.0505941,0.030932,0.0592939,
 0.3756949\Polar=18.43522,0.3339681,18.8761923,0.5550894,0.4049051,20.8
 196643\PG=C01 [X(F3H1O1Si1)]\NImag=0\\0.54809503,0.01055065,0.55221701
 ,0.01198565,-0.00131821,0.59627782,-0.06949599,-0.05273380,-0.06966663
 ,0.07306864,-0.05005177,-0.11764225,-0.10261951,0.07849284,0.19554465,
 -0.08311697,-0.12880852,-0.23590205,0.04238417,-0.04247192,0.74249924,
 -0.07139499,0.09604948,-0.00152835,0.00781003,-0.00293676,-0.00287173,
 0.06865270,0.09705534,-0.30045777,0.00551584,0.00329589,-0.01343278,-0
 .00822441,-0.10884161,0.32846245,-0.00076334,0.00250132,-0.03798825,0.
 00107788,-0.01774953,0.00094822,0.00252371,-0.00486084,0.02788647,-0.0
 6596551,-0.04354893,0.08443211,0.00474015,-0.00026624,-0.00390829,0.00
 643848,0.00401720,-0.00185291,0.06499996,-0.04359986,-0.09679746,0.119
 33780,-0.00041037,0.00491280,-0.00632723,-0.00253691,-0.01139313,0.017
 06227,0.05003954,0.09793124,0.08645896,0.12115733,-0.26336870,0.002197
 11,0.00545797,-0.02190124,0.00253051,0.00510260,-0.00104884,-0.0956604
 2,-0.13408070,0.28658648,-0.34087026,-0.00967380,-0.01221555,-0.008227
 55,-0.00336559,-0.00707765,-0.01061668,0.00426121,-0.00072270,-0.01175
 084,-0.00293844,0.00432251,0.37315151,-0.01060970,-0.03631525,0.000695
 31,-0.00906405,0.00490345,-0.00660090,0.01839177,-0.00169580,0.0010113
 1,-0.00959184,0.00489034,0.00441260,0.01201189,0.02922879,-0.01607177,
 0.00006229,-0.03797463,-0.01631087,-0.00556049,0.00000165,-0.00048588,
 0.00035054,0.00743189,0.01757172,0.00488699,-0.00061908,0.01382753,0.0
 0014144,0.02902104,-0.00036827,-0.00064360,-0.01300723,-0.00789527,-0.
 02187248,0.05459047,-0.00088955,0.00021196,-0.00026265,0.00153775,-0.0
 0055396,0.00015134,-0.00168618,-0.00113806,0.00146927,0.00930153,-0.00
 334466,-0.00100428,-0.02161123,-0.01958051,-0.07428588,0.19243298,-0.0
 0012597,-0.00148298,0.00203547,-0.00064972,0.00045622,-0.00204981,-0.0
 0029526,-0.00101152,0.00011923,0.02399613,0.07732843,0.00150747,0.0064
 0579,-0.02104418,0.04031835,0.16294348,-0.48564581,-0.00016826,0.00211
 626,0.00277050,-0.00058221,-0.00087913,0.00035138,0.00186586,0.0003402
 4,0.00213913,-0.04294121,-0.17092665,0.50142899\\0.00000060,0.00000091
 ,-0.00000038,0.00000010,-0.00000122,0.00000120,0.00244381,-0.00125868,
 -0.00016253,-0.00207725,-0.00115473,0.00141598,-0.00036625,0.00241321,
 -0.00125420,-0.00000101,0.00000051,-0.00000008\\\@


 In the race for quality, there is no finish line.
                               -- David T. Kearns
 Job cpu time:  0 days  0 hours  2 minutes 49.6 seconds.
 File lengths (MBytes):  RWF=      9 Int=      0 D2E=      0 Chk=      1 Scr=      1
 Normal termination of Gaussian 09 at Wed May  3 10:15:34 2017.
