 Entering Gaussian System, Link 0=/sw/chem/g09/g09
 Initial command:
 /sw/chem/g09/l1.exe "/scratch_local/salman/freq/Gau-6767.inp" -scrdir="/scratch_local/salman/freq/"
 Entering Link 1 = /sw/chem/g09/l1.exe PID=      6768.
  
 Copyright (c) 1988,1990,1992,1993,1995,1998,2003,2009,2013,
            Gaussian, Inc.  All Rights Reserved.
  
 This is part of the Gaussian(R) 09 program.  It is based on
 the Gaussian(R) 03 system (copyright 2003, Gaussian, Inc.),
 the Gaussian(R) 98 system (copyright 1998, Gaussian, Inc.),
 the Gaussian(R) 94 system (copyright 1995, Gaussian, Inc.),
 the Gaussian 92(TM) system (copyright 1992, Gaussian, Inc.),
 the Gaussian 90(TM) system (copyright 1990, Gaussian, Inc.),
 the Gaussian 88(TM) system (copyright 1988, Gaussian, Inc.),
 the Gaussian 86(TM) system (copyright 1986, Carnegie Mellon
 University), and the Gaussian 82(TM) system (copyright 1983,
 Carnegie Mellon University). Gaussian is a federally registered
 trademark of Gaussian, Inc.
  
 This software contains proprietary and confidential information,
 including trade secrets, belonging to Gaussian, Inc.
  
 This software is provided under written license and may be
 used, copied, transmitted, or stored only in accord with that
 written license.
  
 The following legend is applicable only to US Government
 contracts under FAR:
  
                    RESTRICTED RIGHTS LEGEND
  
 Use, reproduction and disclosure by the US Government is
 subject to restrictions as set forth in subparagraphs (a)
 and (c) of the Commercial Computer Software - Restricted
 Rights clause in FAR 52.227-19.
  
 Gaussian, Inc.
 340 Quinnipiac St., Bldg. 40, Wallingford CT 06492
  
  
 ---------------------------------------------------------------
 Warning -- This program may not be used in any manner that
 competes with the business of Gaussian, Inc. or will provide
 assistance to any competitor of Gaussian, Inc.  The licensee
 of this program is prohibited from giving any competitor of
 Gaussian, Inc. access to this program.  By using this program,
 the user acknowledges that Gaussian, Inc. is engaged in the
 business of creating and licensing software in the field of
 computational chemistry and represents and warrants to the
 licensee that it is not a competitor of Gaussian, Inc. and that
 it will not use this program in any manner prohibited above.
 ---------------------------------------------------------------
  

 Cite this work as:
 Gaussian 09, Revision D.01,
 M. J. Frisch, G. W. Trucks, H. B. Schlegel, G. E. Scuseria, 
 M. A. Robb, J. R. Cheeseman, G. Scalmani, V. Barone, B. Mennucci, 
 G. A. Petersson, H. Nakatsuji, M. Caricato, X. Li, H. P. Hratchian, 
 A. F. Izmaylov, J. Bloino, G. Zheng, J. L. Sonnenberg, M. Hada, 
 M. Ehara, K. Toyota, R. Fukuda, J. Hasegawa, M. Ishida, T. Nakajima, 
 Y. Honda, O. Kitao, H. Nakai, T. Vreven, J. A. Montgomery, Jr., 
 J. E. Peralta, F. Ogliaro, M. Bearpark, J. J. Heyd, E. Brothers, 
 K. N. Kudin, V. N. Staroverov, T. Keith, R. Kobayashi, J. Normand, 
 K. Raghavachari, A. Rendell, J. C. Burant, S. S. Iyengar, J. Tomasi, 
 M. Cossi, N. Rega, J. M. Millam, M. Klene, J. E. Knox, J. B. Cross, 
 V. Bakken, C. Adamo, J. Jaramillo, R. Gomperts, R. E. Stratmann, 
 O. Yazyev, A. J. Austin, R. Cammi, C. Pomelli, J. W. Ochterski, 
 R. L. Martin, K. Morokuma, V. G. Zakrzewski, G. A. Voth, 
 P. Salvador, J. J. Dannenberg, S. Dapprich, A. D. Daniels, 
 O. Farkas, J. B. Foresman, J. V. Ortiz, J. Cioslowski, 
 and D. J. Fox, Gaussian, Inc., Wallingford CT, 2013.
 
 ******************************************
 Gaussian 09:  ES64L-G09RevD.01 24-Apr-2013
                 5-May-2017 
 ******************************************
 %NProcShared=4
 Will use up to    4 processors via shared memory.
 %chk=stuff.chk
 -------------------------
 #p freq wb97xd/gen nosymm
 -------------------------
 1/10=4,30=1,38=1/1,3;
 2/12=2,15=1,17=6,18=5,40=1/2;
 3/5=7,11=2,16=1,25=1,30=1,71=2,74=-58,140=1/1,2,3;
 4//1;
 5/5=2,38=5,98=1/2;
 8/6=4,10=90,11=11/1;
 11/6=1,8=1,9=11,15=111,16=1,31=1/1,2,10;
 10/6=1,31=1/2;
 6/7=2,8=2,9=2,10=2,18=1,28=1/1;
 7/8=1,10=1,25=1,30=1/1,2,3,16;
 1/10=4,30=1/3;
 99//99;
 Leave Link    1 at Fri May  5 16:22:12 2017, MaxMem=           0 cpu:         0.6
 (Enter /sw/chem/g09/l101.exe)
 -------------------------------------------------------------
 Phillips two silanols ugliengo 5.4 26-130 top O plus ethylene
 -------------------------------------------------------------
 Symbolic Z-matrix:
 Charge =  0 Multiplicity = 5
 O                     10.4633   6.28747   31.27206 
 O                     8.3264    7.90994   30.34086 
 Si                    10.93702   6.01892   29.77625 
 Si                    7.72324   8.65459   29.08926 
 Cr                    9.29581   7.62787   31.92834 
 C                     9.74265   6.57155   34.1004 
 H                     9.90096   5.59428   33.65876 
 H                     8.84933   6.71373   34.69912 
 C                     10.67063   7.53164   33.9873 
 H                     11.60015   7.34588   33.46099 
 H                     10.56065   8.48494   34.49243 
 C                     8.55188   9.91932   32.56928 
 H                     9.32542   10.32     33.21578 
 H                     8.51676   10.2889   31.54974 
 C                     7.61096   9.09251   33.04462 
 H                     7.58998   8.80356   34.08974 
 H                     6.78567   8.76515   32.42185 
 F(Iso=100000000)      10.82851   7.42467   28.9248 
 F(Iso=100000000)      8.30054   8.26303   27.63386 
 F(Iso=100000000)      7.99813   10.28422   29.21437 
 F(Iso=100000000)      10.15686   4.75986   29.08246 
 F(Iso=100000000)      12.50004   5.57989   29.68078 
 F(Iso=100000000)      6.12801   8.30139   28.98384 
 
 NAtoms=     23 NQM=       23 NQMF=       0 NMMI=      0 NMMIF=      0
                NMic=       0 NMicF=      0.
                    Isotopes and Nuclear Properties:
 (Nuclear quadrupole moments (NQMom) in fm**2, nuclear magnetic moments (NMagM)
  in nuclear magnetons)

  Atom         1           2           3           4           5           6           7           8           9          10
 IAtWgt=          16          16          28          28          52          12           1           1          12           1
 AtmWgt=  15.9949146  15.9949146  27.9769284  27.9769284  51.9405097  12.0000000   1.0078250   1.0078250  12.0000000   1.0078250
 NucSpn=           0           0           0           0           0           0           1           1           0           1
 AtZEff=   0.0000000   0.0000000   0.0000000   0.0000000   0.0000000   0.0000000   0.0000000   0.0000000   0.0000000   0.0000000
 NQMom=    0.0000000   0.0000000   0.0000000   0.0000000   0.0000000   0.0000000   0.0000000   0.0000000   0.0000000   0.0000000
 NMagM=    0.0000000   0.0000000   0.0000000   0.0000000   0.0000000   0.0000000   2.7928460   2.7928460   0.0000000   2.7928460
 AtZNuc=   8.0000000   8.0000000  14.0000000  14.0000000  24.0000000   6.0000000   1.0000000   1.0000000   6.0000000   1.0000000

  Atom        11          12          13          14          15          16          17          18          19          20
 IAtWgt=           1          12           1           1          12           1           1   100000000   100000000   100000000
 AtmWgt=   1.0078250  12.0000000   1.0078250   1.0078250  12.0000000   1.0078250   1.0078250************************************
 NucSpn=           1           0           1           1           0           1           1           0           0           0
 AtZEff=   0.0000000   0.0000000   0.0000000   0.0000000   0.0000000   0.0000000   0.0000000   0.0000000   0.0000000   0.0000000
 NQMom=    0.0000000   0.0000000   0.0000000   0.0000000   0.0000000   0.0000000   0.0000000   0.0000000   0.0000000   0.0000000
 NMagM=    2.7928460   0.0000000   2.7928460   2.7928460   0.0000000   2.7928460   2.7928460   0.0000000   0.0000000   0.0000000
 AtZNuc=   1.0000000   6.0000000   1.0000000   1.0000000   6.0000000   1.0000000   1.0000000   9.0000000   9.0000000   9.0000000

  Atom        21          22          23
 IAtWgt=   100000000   100000000   100000000
 AtmWgt=************************************
 NucSpn=           0           0           0
 AtZEff=   0.0000000   0.0000000   0.0000000
 NQMom=    0.0000000   0.0000000   0.0000000
 NMagM=    0.0000000   0.0000000   0.0000000
 AtZNuc=   9.0000000   9.0000000   9.0000000
 Leave Link  101 at Fri May  5 16:22:12 2017, MaxMem=    33554432 cpu:         0.3
 (Enter /sw/chem/g09/l103.exe)

 GradGradGradGradGradGradGradGradGradGradGradGradGradGradGradGradGradGrad
 Berny optimization.
 Initialization pass.
 Trust Radius=3.00D-01 FncErr=1.00D-07 GrdErr=1.00D-07
 Number of steps in this run=      2 maximum allowed number of steps=      2.
 GradGradGradGradGradGradGradGradGradGradGradGradGradGradGradGradGradGrad

 Leave Link  103 at Fri May  5 16:22:12 2017, MaxMem=    33554432 cpu:         0.1
 (Enter /sw/chem/g09/l202.exe)
                          Input orientation:                          
 ---------------------------------------------------------------------
 Center     Atomic      Atomic             Coordinates (Angstroms)
 Number     Number       Type             X           Y           Z
 ---------------------------------------------------------------------
      1          8           0       10.463299    6.287469   31.272062
      2          8           0        8.326396    7.909938   30.340861
      3         14           0       10.937024    6.018918   29.776247
      4         14           0        7.723243    8.654588   29.089256
      5         24           0        9.295811    7.627875   31.928338
      6          6           0        9.742649    6.571549   34.100401
      7          1           0        9.900959    5.594281   33.658762
      8          1           0        8.849335    6.713729   34.699123
      9          6           0       10.670632    7.531637   33.987303
     10          1           0       11.600146    7.345882   33.460994
     11          1           0       10.560648    8.484939   34.492433
     12          6           0        8.551875    9.919318   32.569281
     13          1           0        9.325424   10.319996   33.215783
     14          1           0        8.516760   10.288902   31.549742
     15          6           0        7.610963    9.092513   33.044620
     16          1           0        7.589983    8.803560   34.089742
     17          1           0        6.785669    8.765150   32.421853
     18          9           0       10.828510    7.424675   28.924805
     19          9           0        8.300545    8.263031   27.633862
     20          9           0        7.998128   10.284218   29.214369
     21          9           0       10.156859    4.759856   29.082461
     22          9           0       12.500035    5.579892   29.680776
     23          9           0        6.128010    8.301385   28.983845
 ---------------------------------------------------------------------
                    Distance matrix (angstroms):
                    1          2          3          4          5
     1  O    0.000000
     2  O    2.840053   0.000000
     3  Si   1.591853   3.272633   0.000000
     4  Si   4.227979   1.576329   4.212731   0.000000
     5  Cr   1.894839   1.881332   3.148622   3.404042   0.000000
     6  C    2.932497   4.234525   4.519982   5.790391   2.456287
     7  H    2.548151   4.341658   4.040751   5.915093   2.737896
     8  H    3.811998   4.549597   5.392209   6.041989   2.951653
     9  C    2.993906   4.351447   4.482440   5.825717   2.477646
    10  H    2.684043   4.557503   3.972144   5.987920   2.781819
    11  H    3.899890   4.749532   5.335290   6.105241   2.984786
    12  C    4.304259   3.009037   5.357527   3.794305   2.492982
    13  H    4.618884   3.882218   5.738200   4.729566   2.984277
    14  H    4.458429   2.675276   5.218786   3.058536   2.798450
    15  C    4.375621   3.036550   5.584973   3.981116   2.495989
    16  H    4.746154   3.923643   6.128878   5.004479   2.993952
    17  H    4.581036   2.726858   5.636911   3.463736   2.799601
    18  F    2.633673   2.915694   1.647083   3.344012   3.378117
    19  F    4.670851   2.730052   4.071471   1.613929   4.453819
    20  F    5.126907   2.648386   5.210144   1.657380   4.013200
    21  F    2.687351   3.854501   1.635614   4.592545   4.131095
    22  F    2.679767   4.825360   1.626304   5.711515   4.417332
    23  F    5.299673   2.612972   5.381837   1.637263   4.377056
                    6          7          8          9         10
     6  C    0.000000
     7  H    1.084048   0.000000
     8  H    1.084755   1.855109   0.000000
     9  C    1.340043   2.110376   2.119619   0.000000
    10  H    2.111570   2.448358   3.082133   1.084205   0.000000
    11  H    2.117516   3.079951   2.471538   1.084453   1.855229
    12  C    3.869086   4.659715   3.860118   3.492984   4.087747
    13  H    3.873950   4.781199   3.928374   3.190576   3.752312
    14  H    4.671978   5.329488   4.776094   4.264197   4.671351
    15  C    3.466124   4.225977   3.151120   3.561820   4.374662
    16  H    3.100961   3.978169   2.514897   3.334468   4.312952
    17  H    4.046374   4.614043   3.694998   4.366363   5.125752
    18  F    5.356652   5.159559   6.145351   5.066088   4.602027
    19  F    6.837902   6.781075   7.253925   6.820444   6.758994
    20  F    6.379701   6.735645   6.599658   6.123714   6.296204
    21  F    5.351029   4.658785   6.088853   5.657225   5.286034
    22  F    5.302796   4.751818   6.308487   5.069733   4.268322
    23  F    6.499007   6.589265   6.526153   6.801655   7.134573
                   11         12         13         14         15
    11  H    0.000000
    12  C    3.129077   0.000000
    13  H    2.554025   1.084844   0.000000
    14  H    4.011382   1.085028   1.852187   0.000000
    15  C    3.341549   1.339728   2.115512   2.118130   0.000000
    16  H    3.014718   2.117062   2.464780   3.084924   1.084534
    17  H    4.314659   2.115024   3.081920   2.465578   1.084489
    18  F    5.674010   4.968754   5.390237   4.520872   5.487000
    19  F    7.224769   5.211987   6.036499   4.414183   5.517233
    20  F    6.136927   3.419828   4.215959   2.392273   4.029998
    21  F    6.580811   6.430702   6.977879   6.272778   6.399390
    22  F    5.945802   6.539270   6.711410   6.444711   6.896157
    23  F    7.072942   4.620409   5.675170   4.029910   4.394875
                   16         17         18         19         20
    16  H    0.000000
    17  H    1.852094   0.000000
    18  F    6.250277   5.510970   0.000000
    19  F    6.517319   5.046962   2.959726   0.000000
    20  F    5.111574   3.750411   4.033844   2.583535   0.000000
    21  F    6.929159   6.209576   2.752677   4.220968   5.932629
    22  F    7.344360   7.093191   2.601675   5.387468   6.528047
    23  F    5.334766   3.530933   4.781925   2.558091   2.735344
                   21         22         23
    21  F    0.000000
    22  F    2.553608   0.000000
    23  F    5.365051   6.963831   0.000000
 Symmetry turned off by external request.
 Stoichiometry    C4H8CrF6O2Si2(5)
 Framework group  C1[X(C4H8CrF6O2Si2)]
 Deg. of freedom    63
 Full point group                 C1      NOp   1
 Rotational constants (GHZ):      0.0000005      0.0000001      0.0000001
 Leave Link  202 at Fri May  5 16:22:12 2017, MaxMem=    33554432 cpu:         0.1
 (Enter /sw/chem/g09/l301.exe)
 General basis read from cards:  (5D, 7F)
 Centers:       3      4      1      2      6      9     12     15      7      8
 Centers:      10     11     13     14     16     17
 TZVP
 ****
 Centers:      18     19     20     21     22     23
 6-31G
 ****
 Centers:       5
 S 8 1.00
     Exponent=  2.5447780704D+05 Coefficients=  2.3386945693D-04
     Exponent=  3.8131797054D+04 Coefficients=  1.8142601800D-03
     Exponent=  8.6752930607D+03 Coefficients=  9.4363925721D-03
     Exponent=  2.4550099848D+03 Coefficients=  3.8343639367D-02
     Exponent=  7.9916217787D+02 Coefficients=  1.2459194837D-01
     Exponent=  2.8690021489D+02 Coefficients=  2.9489696029D-01
     Exponent=  1.1125413232D+02 Coefficients=  4.1846149607D-01
     Exponent=  4.3864152636D+01 Coefficients=  2.1633763420D-01
 S 4 1.00
     Exponent=  2.7932669173D+02 Coefficients= -2.3450908111D-02
     Exponent=  8.6274732376D+01 Coefficients= -1.1080370027D-01
     Exponent=  1.3555756113D+01 Coefficients=  5.3028965842D-01
     Exponent=  5.6978112751D+00 Coefficients=  5.1603516947D-01
 S 2 1.00
     Exponent=  8.5636582615D+00 Coefficients= -3.8109545675D-01
     Exponent=  1.3988296768D+00 Coefficients=  1.1991591436D+00
 S 1 1.00
     Exponent=  5.7288171116D-01 Coefficients=  1.0000000000D+00
 S 1 1.00
     Exponent=  9.0096171317D-02 Coefficients=  1.0000000000D+00
 S 1 1.00
     Exponent=  3.4125885135D-02 Coefficients=  1.0000000000D+00
 P 6 1.00
     Exponent=  1.3064398864D+03 Coefficients=  2.4277326185D-03
     Exponent=  3.0925311441D+02 Coefficients=  1.9544041017D-02
     Exponent=  9.8996273963D+01 Coefficients=  9.0651794553D-02
     Exponent=  3.6756916451D+01 Coefficients=  2.5699279154D-01
     Exponent=  1.4566657077D+01 Coefficients=  4.0935504891D-01
     Exponent=  5.8739937432D+00 Coefficients=  2.3729388849D-01
 P 3 1.00
     Exponent=  2.2890999695D+01 Coefficients= -2.8166026613D-02
     Exponent=  3.0855001822D+00 Coefficients=  5.6034120148D-01
     Exponent=  1.2132329118D+00 Coefficients=  9.8119019650D-01
 P 1 1.00
     Exponent=  4.4931680699D-01 Coefficients=  1.0000000000D+00
 P 1 1.00
     Exponent=  1.2067500000D-01 Coefficients=  1.0000000000D+00
 D 4 1.00
     Exponent=  4.3720074476D+01 Coefficients=  1.3622964026D-02
     Exponent=  1.2391242652D+01 Coefficients=  7.8935180133D-02
     Exponent=  4.2639442006D+00 Coefficients=  2.3833840000D-01
     Exponent=  1.5525221790D+00 Coefficients=  3.9526851122D-01
 D 1 1.00
     Exponent=  5.3761929485D-01 Coefficients=  1.0000000000D+00
 D 1 1.00
     Exponent=  1.6493173074D-01 Coefficients=  1.0000000000D+00
 D 1 1.00
     Exponent=  5.1000000000D-02 Coefficients=  1.0000000000D+00
 F 1 1.00
     Exponent=  1.1470000000D+00 Coefficients=  1.0000000000D+00
 ****
 Ernie: Thresh=  0.10000D-02 Tol=  0.10000D-05 Strict=F.
   305 basis functions,   602 primitive gaussians,   320 cartesian basis functions
    79 alpha electrons       75 beta electrons
       nuclear repulsion energy      1779.9299037276 Hartrees.
 IExCor= 4639 DFT=T Ex+Corr=wB97XD ExCW=0 ScaHFX=  1.000000
 ScaDFX=  1.000000  1.000000  1.000000  1.000000 ScalE2=  1.000000  1.000000
 IRadAn=      0 IRanWt=     -1 IRanGd=            0 ICorTp=0 IEmpDi=121
  HFx wShort=  0.000000 wLong=  0.200000 cFull=  0.222036 cShort=  0.000000 cLong=  0.777964
  DFx wShort=  0.000000 wLong=  0.200000 cFull=  0.000000 cShort=  0.000000 cLong=  1.000000
 NAtoms=   23 NActive=   23 NUniq=   23 SFac= 1.00D+00 NAtFMM=   60 NAOKFM=F Big=F
 Integral buffers will be    131072 words long.
 Raffenetti 2 integral format.
 Two-electron integral symmetry is turned off.
 R6Disp:  Grimme-D2 Dispersion energy=       -0.0181716786 Hartrees.
 Nuclear repulsion after empirical dispersion term =     1779.9117320490 Hartrees.
 Leave Link  301 at Fri May  5 16:22:13 2017, MaxMem=    33554432 cpu:         0.2
 (Enter /sw/chem/g09/l302.exe)
 NPDir=0 NMtPBC=     1 NCelOv=     1 NCel=       1 NClECP=     1 NCelD=      1
         NCelK=      1 NCelE2=     1 NClLst=     1 CellRange=     0.0.
 One-electron integrals computed using PRISM.
 NBasis=   305 RedAO= T EigKep=  3.45D-04  NBF=   305
 NBsUse=   305 1.00D-06 EigRej= -1.00D+00 NBFU=   305
 Precomputing XC quadrature grid using
 IXCGrd= 4 IRadAn=           0 IRanWt=          -1 IRanGd=           0 AccXCQ= 0.00D+00.
 Generated NRdTot=       0 NPtTot=           0 NUsed=           0 NTot=          32
 NSgBfM=   309   309   309   309   309 MxSgAt=    23 MxSgA2=    23.
 Leave Link  302 at Fri May  5 16:22:14 2017, MaxMem=    33554432 cpu:         2.4
 (Enter /sw/chem/g09/l303.exe)
 DipDrv:  MaxL=1.
 Leave Link  303 at Fri May  5 16:22:14 2017, MaxMem=    33554432 cpu:         0.3
 (Enter /sw/chem/g09/l401.exe)
 ExpMin= 3.41D-02 ExpMax= 2.54D+05 ExpMxC= 2.46D+03 IAcc=3 IRadAn=         5 AccDes= 0.00D+00
 Harris functional with IExCor= 4639 and IRadAn=       5 diagonalized for initial guess.
 HarFok:  IExCor= 4639 AccDes= 0.00D+00 IRadAn=         5 IDoV= 1 UseB2=F ITyADJ=14
 ICtDFT=  3500011 ScaDFX=  1.000000  1.000000  1.000000  1.000000
 FoFCou: FMM=F IPFlag=           0 FMFlag=      100000 FMFlg1=           0
         NFxFlg=           0 DoJE=T BraDBF=F KetDBF=T FulRan=T
         wScrn=  0.000000 ICntrl=     500 IOpCl=  0 I1Cent=   200000004 NGrid=           0
         NMat0=    1 NMatS0=      1 NMatT0=    0 NMatD0=    1 NMtDS0=    0 NMtDT0=    0
 Symmetry not used in FoFCou.
 Harris En= -2476.34715823966    
 JPrj=0 DoOrth=F DoCkMO=F.
 Initial guess <Sx>= 0.0000 <Sy>= 0.0000 <Sz>= 2.0000 <S**2>= 6.0000 S= 2.0000
 Leave Link  401 at Fri May  5 16:22:21 2017, MaxMem=    33554432 cpu:        18.1
 (Enter /sw/chem/g09/l502.exe)
 UHF open shell SCF:
 Using DIIS extrapolation, IDIIS=  1040.
 Two-electron integral symmetry not used.
 IVT=      329636 IEndB=      329636 NGot=    33554432 MDV=    33344157
 LenX=    33344157 LenY=    33241316
 Requested convergence on RMS density matrix=1.00D-08 within 128 cycles.
 Requested convergence on MAX density matrix=1.00D-06.
 Requested convergence on             energy=1.00D-06.
 No special actions if energy rises.
 Fock matrices will be formed incrementally for  20 cycles.

 Cycle   1  Pass 1  IDiag  1:
 FoFJK:  IHMeth= 1 ICntrl=       0 DoSepK=T KAlg= 0 I1Cent=   0 FoldK=F
 IRaf=         1 NMat=   1 IRICut=       1 DoRegI=T DoRafI=F ISym2E= 0.
 FoFCou: FMM=F IPFlag=           0 FMFlag=      100000 FMFlg1=           0
         NFxFlg=           0 DoJE=T BraDBF=F KetDBF=F FulRan=T
         wScrn=  0.000000 ICntrl=     500 IOpCl=  0 I1Cent=           0 NGrid=           0
         NMat0=    1 NMatS0=      1 NMatT0=    0 NMatD0=    1 NMtDS0=    0 NMtDT0=    0
 Symmetry not used in FoFCou.
 E= -2525.34679308815    
 DIIS: error= 7.15D-02 at cycle   1 NSaved=   1.
 NSaved= 1 IEnMin= 1 EnMin= -2525.34679308815     IErMin= 1 ErrMin= 7.15D-02
 ErrMax= 7.15D-02  0.00D+00 EMaxC= 1.00D-01 BMatC= 2.20D+01 BMatP= 2.20D+01
 IDIUse=3 WtCom= 2.85D-01 WtEn= 7.15D-01
 Coeff-Com:  0.100D+01
 Coeff-En:   0.100D+01
 Coeff:      0.100D+01
 Gap=     0.114 Goal=   None    Shift=    0.000
 Gap=     0.561 Goal=   None    Shift=    0.000
 GapD=    0.114 DampG=1.000 DampE=0.250 DampFc=0.2500 IDamp=-1.
 Damping current iteration by 2.50D-01
 RMSDP=4.48D-02 MaxDP=9.22D+00              OVMax= 9.58D-01

 Cycle   2  Pass 1  IDiag  1:
 RMSU=  7.65D-03    CP:  8.15D-01
 E= -2527.07071010920     Delta-E=       -1.723917021051 Rises=F Damp=T
 DIIS: error= 5.05D-02 at cycle   2 NSaved=   2.
 NSaved= 2 IEnMin= 2 EnMin= -2527.07071010920     IErMin= 2 ErrMin= 5.05D-02
 ErrMax= 5.05D-02  0.00D+00 EMaxC= 1.00D-01 BMatC= 4.08D+00 BMatP= 2.20D+01
 IDIUse=3 WtCom= 4.95D-01 WtEn= 5.05D-01
 Coeff-Com: -0.750D-01 0.108D+01
 Coeff-En:   0.293D+00 0.707D+00
 Coeff:      0.111D+00 0.889D+00
 Gap=     0.341 Goal=   None    Shift=    0.000
 Gap=    -0.469 Goal=   None    Shift=    0.000
 RMSDP=2.93D-02 MaxDP=6.99D+00 DE=-1.72D+00 OVMax= 9.62D-01

 Cycle   3  Pass 1  IDiag  1:
 RMSU=  1.43D-02    CP:  2.47D-01  1.68D+00
 E= -2529.81461063052     Delta-E=       -2.743900521322 Rises=F Damp=F
 DIIS: error= 4.49D-02 at cycle   3 NSaved=   3.
 NSaved= 3 IEnMin= 3 EnMin= -2529.81461063052     IErMin= 3 ErrMin= 4.49D-02
 ErrMax= 4.49D-02  0.00D+00 EMaxC= 1.00D-01 BMatC= 3.72D+00 BMatP= 4.08D+00
 IDIUse=3 WtCom= 5.51D-01 WtEn= 4.49D-01
 Coeff-Com:  0.112D+00 0.312D+00 0.576D+00
 Coeff-En:   0.719D-01 0.000D+00 0.928D+00
 Coeff:      0.941D-01 0.172D+00 0.734D+00
 Gap=     0.268 Goal=   None    Shift=    0.000
 Gap=     0.585 Goal=   None    Shift=    0.000
 RMSDP=2.94D-03 MaxDP=1.72D-01 DE=-2.74D+00 OVMax= 2.42D-01

 Cycle   4  Pass 1  IDiag  1:
 RMSU=  2.85D-03    CP:  2.46D-01  1.59D+00  1.01D+00
 E= -2530.05489682492     Delta-E=       -0.240286194395 Rises=F Damp=F
 DIIS: error= 2.75D-02 at cycle   4 NSaved=   4.
 NSaved= 4 IEnMin= 4 EnMin= -2530.05489682492     IErMin= 4 ErrMin= 2.75D-02
 ErrMax= 2.75D-02  0.00D+00 EMaxC= 1.00D-01 BMatC= 2.49D+00 BMatP= 3.72D+00
 IDIUse=3 WtCom= 7.25D-01 WtEn= 2.75D-01
 Coeff-Com:  0.172D-02 0.102D+00 0.414D+00 0.483D+00
 Coeff-En:   0.000D+00 0.000D+00 0.398D+00 0.602D+00
 Coeff:      0.125D-02 0.739D-01 0.409D+00 0.516D+00
 Gap=     0.296 Goal=   None    Shift=    0.000
 Gap=     0.375 Goal=   None    Shift=    0.000
 RMSDP=1.60D-03 MaxDP=7.96D-02 DE=-2.40D-01 OVMax= 1.44D-01

 Cycle   5  Pass 1  IDiag  1:
 RMSU=  1.08D-03    CP:  2.43D-01  1.62D+00  1.01D+00  6.00D-01
 E= -2530.46917530647     Delta-E=       -0.414278481552 Rises=F Damp=F
 DIIS: error= 4.75D-03 at cycle   5 NSaved=   5.
 NSaved= 5 IEnMin= 5 EnMin= -2530.46917530647     IErMin= 5 ErrMin= 4.75D-03
 ErrMax= 4.75D-03  0.00D+00 EMaxC= 1.00D-01 BMatC= 4.65D-02 BMatP= 2.49D+00
 IDIUse=3 WtCom= 9.53D-01 WtEn= 4.75D-02
 Coeff-Com: -0.532D-02 0.583D-02 0.170D-01 0.102D+00 0.880D+00
 Coeff-En:   0.000D+00 0.000D+00 0.000D+00 0.000D+00 0.100D+01
 Coeff:     -0.507D-02 0.555D-02 0.162D-01 0.974D-01 0.886D+00
 Gap=     0.315 Goal=   None    Shift=    0.000
 Gap=     0.366 Goal=   None    Shift=    0.000
 RMSDP=6.00D-04 MaxDP=2.81D-02 DE=-4.14D-01 OVMax= 9.52D-02

 Cycle   6  Pass 1  IDiag  1:
 RMSU=  4.68D-04    CP:  2.42D-01  1.62D+00  1.00D+00  6.06D-01  1.34D+00
 E= -2530.48923405922     Delta-E=       -0.020058752752 Rises=F Damp=F
 DIIS: error= 2.32D-03 at cycle   6 NSaved=   6.
 NSaved= 6 IEnMin= 6 EnMin= -2530.48923405922     IErMin= 6 ErrMin= 2.32D-03
 ErrMax= 2.32D-03  0.00D+00 EMaxC= 1.00D-01 BMatC= 1.79D-02 BMatP= 4.65D-02
 IDIUse=3 WtCom= 9.77D-01 WtEn= 2.32D-02
 Coeff-Com:  0.101D-01-0.160D-01-0.439D-01-0.288D-01 0.341D+00 0.737D+00
 Coeff-En:   0.000D+00 0.000D+00 0.000D+00 0.000D+00 0.000D+00 0.100D+01
 Coeff:      0.988D-02-0.156D-01-0.429D-01-0.281D-01 0.333D+00 0.743D+00
 Gap=     0.332 Goal=   None    Shift=    0.000
 Gap=     0.351 Goal=   None    Shift=    0.000
 RMSDP=3.17D-04 MaxDP=1.67D-02 DE=-2.01D-02 OVMax= 5.41D-02

 Cycle   7  Pass 1  IDiag  1:
 RMSU=  1.95D-04    CP:  2.42D-01  1.62D+00  1.00D+00  6.07D-01  1.55D+00
                    CP:  1.24D+00
 E= -2530.49492904951     Delta-E=       -0.005694990292 Rises=F Damp=F
 DIIS: error= 2.18D-03 at cycle   7 NSaved=   7.
 NSaved= 7 IEnMin= 7 EnMin= -2530.49492904951     IErMin= 7 ErrMin= 2.18D-03
 ErrMax= 2.18D-03  0.00D+00 EMaxC= 1.00D-01 BMatC= 1.10D-02 BMatP= 1.79D-02
 IDIUse=3 WtCom= 9.78D-01 WtEn= 2.18D-02
 Coeff-Com:  0.152D-01-0.233D-01-0.245D-01-0.712D-02 0.488D-01 0.213D+00
 Coeff-Com:  0.778D+00
 Coeff-En:   0.000D+00 0.000D+00 0.000D+00 0.000D+00 0.000D+00 0.000D+00
 Coeff-En:   0.100D+01
 Coeff:      0.148D-01-0.228D-01-0.239D-01-0.696D-02 0.477D-01 0.208D+00
 Coeff:      0.783D+00
 Gap=     0.331 Goal=   None    Shift=    0.000
 Gap=     0.350 Goal=   None    Shift=    0.000
 RMSDP=1.78D-04 MaxDP=1.16D-02 DE=-5.69D-03 OVMax= 2.59D-02

 Cycle   8  Pass 1  IDiag  1:
 RMSU=  6.65D-05    CP:  2.42D-01  1.61D+00  1.00D+00  6.09D-01  1.64D+00
                    CP:  1.48D+00  1.35D+00
 E= -2530.49715958661     Delta-E=       -0.002230537096 Rises=F Damp=F
 DIIS: error= 1.58D-03 at cycle   8 NSaved=   8.
 NSaved= 8 IEnMin= 8 EnMin= -2530.49715958661     IErMin= 8 ErrMin= 1.58D-03
 ErrMax= 1.58D-03  0.00D+00 EMaxC= 1.00D-01 BMatC= 5.91D-03 BMatP= 1.10D-02
 IDIUse=3 WtCom= 9.84D-01 WtEn= 1.58D-02
 Coeff-Com:  0.763D-02-0.108D-01-0.630D-02 0.216D-01 0.247D-01-0.170D+00
 Coeff-Com: -0.381D+00 0.151D+01
 Coeff-En:   0.000D+00 0.000D+00 0.000D+00 0.000D+00 0.000D+00 0.000D+00
 Coeff-En:   0.000D+00 0.100D+01
 Coeff:      0.751D-02-0.107D-01-0.620D-02 0.213D-01 0.243D-01-0.167D+00
 Coeff:     -0.375D+00 0.151D+01
 Gap=     0.323 Goal=   None    Shift=    0.000
 Gap=     0.348 Goal=   None    Shift=    0.000
 RMSDP=1.66D-04 MaxDP=8.16D-03 DE=-2.23D-03 OVMax= 2.45D-02

 Cycle   9  Pass 1  IDiag  1:
 RMSU=  6.58D-05    CP:  2.42D-01  1.61D+00  1.00D+00  6.14D-01  1.70D+00
                    CP:  1.68D+00  1.79D+00  1.61D+00
 E= -2530.49857367793     Delta-E=       -0.001414091320 Rises=F Damp=F
 DIIS: error= 6.49D-04 at cycle   9 NSaved=   9.
 NSaved= 9 IEnMin= 9 EnMin= -2530.49857367793     IErMin= 9 ErrMin= 6.49D-04
 ErrMax= 6.49D-04  0.00D+00 EMaxC= 1.00D-01 BMatC= 1.12D-03 BMatP= 5.91D-03
 IDIUse=3 WtCom= 9.94D-01 WtEn= 6.49D-03
 Coeff-Com:  0.311D-04-0.403D-03 0.620D-03 0.167D-01 0.526D-01-0.883D-01
 Coeff-Com: -0.593D+00 0.768D+00 0.844D+00
 Coeff-En:   0.000D+00 0.000D+00 0.000D+00 0.000D+00 0.000D+00 0.000D+00
 Coeff-En:   0.000D+00 0.000D+00 0.100D+01
 Coeff:      0.309D-04-0.401D-03 0.616D-03 0.166D-01 0.523D-01-0.877D-01
 Coeff:     -0.589D+00 0.763D+00 0.845D+00
 Gap=     0.320 Goal=   None    Shift=    0.000
 Gap=     0.348 Goal=   None    Shift=    0.000
 RMSDP=6.08D-05 MaxDP=3.53D-03 DE=-1.41D-03 OVMax= 7.83D-03

 Cycle  10  Pass 1  IDiag  1:
 RMSU=  3.42D-05    CP:  2.42D-01  1.61D+00  1.00D+00  6.17D-01  1.71D+00
                    CP:  1.73D+00  1.90D+00  2.06D+00  1.29D+00
 E= -2530.49881215895     Delta-E=       -0.000238481021 Rises=F Damp=F
 DIIS: error= 2.13D-04 at cycle  10 NSaved=  10.
 NSaved=10 IEnMin=10 EnMin= -2530.49881215895     IErMin=10 ErrMin= 2.13D-04
 ErrMax= 2.13D-04  0.00D+00 EMaxC= 1.00D-01 BMatC= 8.24D-05 BMatP= 1.12D-03
 IDIUse=3 WtCom= 9.98D-01 WtEn= 2.13D-03
 Coeff-Com: -0.602D-03 0.619D-03 0.837D-03 0.527D-02 0.152D-01-0.182D-01
 Coeff-Com: -0.169D+00 0.173D+00 0.352D+00 0.640D+00
 Coeff-En:   0.000D+00 0.000D+00 0.000D+00 0.000D+00 0.000D+00 0.000D+00
 Coeff-En:   0.000D+00 0.000D+00 0.000D+00 0.100D+01
 Coeff:     -0.601D-03 0.617D-03 0.835D-03 0.526D-02 0.152D-01-0.182D-01
 Coeff:     -0.168D+00 0.173D+00 0.352D+00 0.641D+00
 Gap=     0.320 Goal=   None    Shift=    0.000
 Gap=     0.348 Goal=   None    Shift=    0.000
 RMSDP=1.29D-05 MaxDP=7.16D-04 DE=-2.38D-04 OVMax= 1.24D-03

 Cycle  11  Pass 1  IDiag  1:
 RMSU=  1.12D-05    CP:  2.42D-01  1.61D+00  1.00D+00  6.17D-01  1.70D+00
                    CP:  1.72D+00  1.90D+00  2.05D+00  1.34D+00  9.71D-01
 E= -2530.49882530633     Delta-E=       -0.000013147379 Rises=F Damp=F
 DIIS: error= 1.36D-04 at cycle  11 NSaved=  11.
 NSaved=11 IEnMin=11 EnMin= -2530.49882530633     IErMin=11 ErrMin= 1.36D-04
 ErrMax= 1.36D-04  0.00D+00 EMaxC= 1.00D-01 BMatC= 2.68D-05 BMatP= 8.24D-05
 IDIUse=3 WtCom= 9.99D-01 WtEn= 1.36D-03
 Coeff-Com: -0.200D-03 0.367D-03 0.142D-03-0.331D-03-0.610D-02 0.751D-03
 Coeff-Com:  0.333D-01-0.129D-01 0.288D-01 0.248D+00 0.708D+00
 Coeff-En:   0.000D+00 0.000D+00 0.000D+00 0.000D+00 0.000D+00 0.000D+00
 Coeff-En:   0.000D+00 0.000D+00 0.000D+00 0.000D+00 0.100D+01
 Coeff:     -0.199D-03 0.366D-03 0.142D-03-0.330D-03-0.609D-02 0.750D-03
 Coeff:      0.333D-01-0.129D-01 0.288D-01 0.248D+00 0.709D+00
 Gap=     0.321 Goal=   None    Shift=    0.000
 Gap=     0.348 Goal=   None    Shift=    0.000
 RMSDP=7.80D-06 MaxDP=8.17D-04 DE=-1.31D-05 OVMax= 7.67D-04

 Cycle  12  Pass 1  IDiag  1:
 RMSU=  6.12D-06    CP:  2.42D-01  1.61D+00  1.00D+00  6.16D-01  1.70D+00
                    CP:  1.72D+00  1.89D+00  2.02D+00  1.34D+00  9.99D-01
                    CP:  1.25D+00
 E= -2530.49883117859     Delta-E=       -0.000005872262 Rises=F Damp=F
 DIIS: error= 7.87D-05 at cycle  12 NSaved=  12.
 NSaved=12 IEnMin=12 EnMin= -2530.49883117859     IErMin=12 ErrMin= 7.87D-05
 ErrMax= 7.87D-05  0.00D+00 EMaxC= 1.00D-01 BMatC= 3.11D-06 BMatP= 2.68D-05
 IDIUse=1 WtCom= 1.00D+00 WtEn= 0.00D+00
 Coeff-Com:  0.328D-04 0.698D-05 0.145D-03-0.540D-03-0.361D-02-0.333D-02
 Coeff-Com:  0.170D-01-0.222D-02-0.531D-01-0.161D+00-0.159D+00 0.137D+01
 Coeff:      0.328D-04 0.698D-05 0.145D-03-0.540D-03-0.361D-02-0.333D-02
 Coeff:      0.170D-01-0.222D-02-0.531D-01-0.161D+00-0.159D+00 0.137D+01
 Gap=     0.321 Goal=   None    Shift=    0.000
 Gap=     0.348 Goal=   None    Shift=    0.000
 RMSDP=8.98D-06 MaxDP=8.05D-04 DE=-5.87D-06 OVMax= 1.73D-03

 Cycle  13  Pass 1  IDiag  1:
 RMSU=  3.24D-06    CP:  2.42D-01  1.61D+00  1.00D+00  6.16D-01  1.70D+00
                    CP:  1.72D+00  1.91D+00  2.04D+00  1.35D+00  1.04D+00
                    CP:  1.72D+00  1.84D+00
 E= -2530.49883491770     Delta-E=       -0.000003739109 Rises=F Damp=F
 DIIS: error= 2.55D-05 at cycle  13 NSaved=  13.
 NSaved=13 IEnMin=13 EnMin= -2530.49883491770     IErMin=13 ErrMin= 2.55D-05
 ErrMax= 2.55D-05  0.00D+00 EMaxC= 1.00D-01 BMatC= 7.00D-07 BMatP= 3.11D-06
 IDIUse=1 WtCom= 1.00D+00 WtEn= 0.00D+00
 Coeff-Com:  0.360D-04-0.680D-04 0.117D-03 0.132D-03 0.141D-02-0.921D-03
 Coeff-Com: -0.984D-02 0.581D-03-0.568D-02-0.515D-01-0.151D+00 0.942D-01
 Coeff-Com:  0.112D+01
 Coeff:      0.360D-04-0.680D-04 0.117D-03 0.132D-03 0.141D-02-0.921D-03
 Coeff:     -0.984D-02 0.581D-03-0.568D-02-0.515D-01-0.151D+00 0.942D-01
 Coeff:      0.112D+01
 Gap=     0.321 Goal=   None    Shift=    0.000
 Gap=     0.348 Goal=   None    Shift=    0.000
 RMSDP=5.64D-06 MaxDP=5.35D-04 DE=-3.74D-06 OVMax= 1.09D-03

 Cycle  14  Pass 1  IDiag  1:
 RMSU=  1.55D-06    CP:  2.42D-01  1.61D+00  1.00D+00  6.16D-01  1.70D+00
                    CP:  1.73D+00  1.91D+00  2.06D+00  1.37D+00  1.06D+00
                    CP:  1.96D+00  2.34D+00  1.70D+00
 E= -2530.49883632972     Delta-E=       -0.000001412020 Rises=F Damp=F
 DIIS: error= 1.96D-05 at cycle  14 NSaved=  14.
 NSaved=14 IEnMin=14 EnMin= -2530.49883632972     IErMin=14 ErrMin= 1.96D-05
 ErrMax= 1.96D-05  0.00D+00 EMaxC= 1.00D-01 BMatC= 3.73D-07 BMatP= 7.00D-07
 IDIUse=1 WtCom= 1.00D+00 WtEn= 0.00D+00
 Coeff-Com:  0.191D-04-0.401D-04-0.788D-05 0.492D-04 0.127D-02 0.157D-02
 Coeff-Com: -0.323D-02-0.632D-02 0.594D-02 0.250D-01 0.183D-01-0.268D+00
 Coeff-Com:  0.186D+00 0.104D+01
 Coeff:      0.191D-04-0.401D-04-0.788D-05 0.492D-04 0.127D-02 0.157D-02
 Coeff:     -0.323D-02-0.632D-02 0.594D-02 0.250D-01 0.183D-01-0.268D+00
 Coeff:      0.186D+00 0.104D+01
 Gap=     0.321 Goal=   None    Shift=    0.000
 Gap=     0.348 Goal=   None    Shift=    0.000
 RMSDP=3.25D-06 MaxDP=3.40D-04 DE=-1.41D-06 OVMax= 7.27D-04

 Cycle  15  Pass 1  IDiag  1:
 RMSU=  9.87D-07    CP:  2.42D-01  1.61D+00  1.00D+00  6.16D-01  1.70D+00
                    CP:  1.73D+00  1.91D+00  2.07D+00  1.38D+00  1.08D+00
                    CP:  2.07D+00  2.56D+00  2.24D+00  1.80D+00
 E= -2530.49883693163     Delta-E=       -0.000000601905 Rises=F Damp=F
 DIIS: error= 1.45D-05 at cycle  15 NSaved=  15.
 NSaved=15 IEnMin=15 EnMin= -2530.49883693163     IErMin=15 ErrMin= 1.45D-05
 ErrMax= 1.45D-05  0.00D+00 EMaxC= 1.00D-01 BMatC= 1.61D-07 BMatP= 3.73D-07
 IDIUse=1 WtCom= 1.00D+00 WtEn= 0.00D+00
 Coeff-Com: -0.128D-05 0.686D-05-0.818D-04-0.114D-03-0.222D-03 0.169D-02
 Coeff-Com:  0.573D-02-0.612D-02 0.176D-02 0.335D-01 0.923D-01-0.132D+00
 Coeff-Com: -0.586D+00 0.447D+00 0.114D+01
 Coeff:     -0.128D-05 0.686D-05-0.818D-04-0.114D-03-0.222D-03 0.169D-02
 Coeff:      0.573D-02-0.612D-02 0.176D-02 0.335D-01 0.923D-01-0.132D+00
 Coeff:     -0.586D+00 0.447D+00 0.114D+01
 Gap=     0.321 Goal=   None    Shift=    0.000
 Gap=     0.348 Goal=   None    Shift=    0.000
 RMSDP=3.40D-06 MaxDP=3.66D-04 DE=-6.02D-07 OVMax= 8.02D-04

 Cycle  16  Pass 1  IDiag  1:
 RMSU=  7.43D-07    CP:  2.42D-01  1.61D+00  1.00D+00  6.16D-01  1.70D+00
                    CP:  1.72D+00  1.91D+00  2.08D+00  1.39D+00  1.10D+00
                    CP:  2.17D+00  2.74D+00  2.79D+00  2.96D+00  1.94D+00
 E= -2530.49883734768     Delta-E=       -0.000000416053 Rises=F Damp=F
 DIIS: error= 9.18D-06 at cycle  16 NSaved=  16.
 NSaved=16 IEnMin=16 EnMin= -2530.49883734768     IErMin=16 ErrMin= 9.18D-06
 ErrMax= 9.18D-06  0.00D+00 EMaxC= 1.00D-01 BMatC= 4.69D-08 BMatP= 1.61D-07
 IDIUse=1 WtCom= 1.00D+00 WtEn= 0.00D+00
 Coeff-Com: -0.963D-05 0.158D-04-0.993D-05 0.389D-04-0.449D-03-0.124D-02
 Coeff-Com: -0.114D-02 0.671D-02-0.163D-02-0.194D-01-0.377D-01 0.119D+00
 Coeff-Com:  0.881D-01-0.541D+00-0.245D+00 0.163D+01
 Coeff:     -0.963D-05 0.158D-04-0.993D-05 0.389D-04-0.449D-03-0.124D-02
 Coeff:     -0.114D-02 0.671D-02-0.163D-02-0.194D-01-0.377D-01 0.119D+00
 Coeff:      0.881D-01-0.541D+00-0.245D+00 0.163D+01
 Gap=     0.321 Goal=   None    Shift=    0.000
 Gap=     0.348 Goal=   None    Shift=    0.000
 RMSDP=2.81D-06 MaxDP=3.12D-04 DE=-4.16D-07 OVMax= 6.99D-04

 Cycle  17  Pass 1  IDiag  1:
 RMSU=  1.67D-06    CP:  2.42D-01  1.61D+00  1.00D+00  6.16D-01  1.70D+00
                    CP:  1.72D+00  1.91D+00  2.07D+00  1.40D+00  1.11D+00
                    CP:  2.23D+00  2.87D+00  3.00D+00  3.00D+00  3.00D+00
                    CP:  2.19D+00
 E= -2530.49883753321     Delta-E=       -0.000000185531 Rises=F Damp=F
 DIIS: error= 4.48D-06 at cycle  17 NSaved=  17.
 NSaved=17 IEnMin=17 EnMin= -2530.49883753321     IErMin=17 ErrMin= 4.48D-06
 ErrMax= 4.48D-06  0.00D+00 EMaxC= 1.00D-01 BMatC= 1.82D-08 BMatP= 4.69D-08
 IDIUse=1 WtCom= 1.00D+00 WtEn= 0.00D+00
 Coeff-Com: -0.443D-05 0.187D-05 0.101D-04 0.493D-04 0.190D-04-0.633D-03
 Coeff-Com: -0.162D-02 0.325D-02 0.318D-03-0.830D-02-0.255D-01 0.260D-01
 Coeff-Com:  0.136D+00-0.130D+00-0.256D+00 0.130D+00 0.113D+01
 Coeff:     -0.443D-05 0.187D-05 0.101D-04 0.493D-04 0.190D-04-0.633D-03
 Coeff:     -0.162D-02 0.325D-02 0.318D-03-0.830D-02-0.255D-01 0.260D-01
 Coeff:      0.136D+00-0.130D+00-0.256D+00 0.130D+00 0.113D+01
 Gap=     0.321 Goal=   None    Shift=    0.000
 Gap=     0.348 Goal=   None    Shift=    0.000
 RMSDP=1.05D-06 MaxDP=1.06D-04 DE=-1.86D-07 OVMax= 2.55D-04

 Cycle  18  Pass 1  IDiag  1:
 RMSU=  4.95D-07    CP:  2.42D-01  1.61D+00  1.00D+00  6.16D-01  1.70D+00
                    CP:  1.72D+00  1.91D+00  2.07D+00  1.40D+00  1.11D+00
                    CP:  2.24D+00  2.91D+00  3.00D+00  3.00D+00  3.00D+00
                    CP:  2.78D+00  1.45D+00
 E= -2530.49883756864     Delta-E=       -0.000000035431 Rises=F Damp=F
 DIIS: error= 2.81D-06 at cycle  18 NSaved=  18.
 NSaved=18 IEnMin=18 EnMin= -2530.49883756864     IErMin=18 ErrMin= 2.81D-06
 ErrMax= 2.81D-06  0.00D+00 EMaxC= 1.00D-01 BMatC= 5.84D-09 BMatP= 1.82D-08
 IDIUse=1 WtCom= 1.00D+00 WtEn= 0.00D+00
 Coeff-Com:  0.746D-06-0.201D-05 0.763D-05 0.430D-05 0.151D-03 0.180D-03
 Coeff-Com: -0.197D-03-0.957D-03 0.942D-03 0.431D-02 0.401D-02-0.348D-01
 Coeff-Com:  0.149D-01 0.147D+00 0.493D-03-0.530D+00 0.410D+00 0.984D+00
 Coeff:      0.746D-06-0.201D-05 0.763D-05 0.430D-05 0.151D-03 0.180D-03
 Coeff:     -0.197D-03-0.957D-03 0.942D-03 0.431D-02 0.401D-02-0.348D-01
 Coeff:      0.149D-01 0.147D+00 0.493D-03-0.530D+00 0.410D+00 0.984D+00
 Gap=     0.321 Goal=   None    Shift=    0.000
 Gap=     0.348 Goal=   None    Shift=    0.000
 RMSDP=5.99D-07 MaxDP=5.25D-05 DE=-3.54D-08 OVMax= 1.31D-04

 Cycle  19  Pass 1  IDiag  1:
 RMSU=  2.01D-07    CP:  2.42D-01  1.61D+00  1.00D+00  6.16D-01  1.70D+00
                    CP:  1.72D+00  1.91D+00  2.07D+00  1.40D+00  1.11D+00
                    CP:  2.25D+00  2.93D+00  3.00D+00  3.00D+00  3.00D+00
                    CP:  3.00D+00  1.69D+00  1.60D+00
 E= -2530.49883758186     Delta-E=       -0.000000013217 Rises=F Damp=F
 DIIS: error= 1.95D-06 at cycle  19 NSaved=  19.
 NSaved=19 IEnMin=19 EnMin= -2530.49883758186     IErMin=19 ErrMin= 1.95D-06
 ErrMax= 1.95D-06  0.00D+00 EMaxC= 1.00D-01 BMatC= 2.12D-09 BMatP= 5.84D-09
 IDIUse=1 WtCom= 1.00D+00 WtEn= 0.00D+00
 Coeff-Com:  0.141D-05 0.597D-06 0.123D-05-0.191D-04 0.394D-05 0.273D-03
 Coeff-Com:  0.516D-03-0.148D-02 0.109D-03 0.400D-02 0.104D-01-0.127D-01
 Coeff-Com: -0.515D-01 0.618D-01 0.935D-01-0.972D-01-0.376D+00 0.743D-01
 Coeff-Com:  0.129D+01
 Coeff:      0.141D-05 0.597D-06 0.123D-05-0.191D-04 0.394D-05 0.273D-03
 Coeff:      0.516D-03-0.148D-02 0.109D-03 0.400D-02 0.104D-01-0.127D-01
 Coeff:     -0.515D-01 0.618D-01 0.935D-01-0.972D-01-0.376D+00 0.743D-01
 Coeff:      0.129D+01
 Gap=     0.321 Goal=   None    Shift=    0.000
 Gap=     0.348 Goal=   None    Shift=    0.000
 RMSDP=4.45D-07 MaxDP=4.87D-05 DE=-1.32D-08 OVMax= 8.78D-05

 Cycle  20  Pass 1  IDiag  1:
 RMSU=  1.35D-07    CP:  2.42D-01  1.61D+00  1.00D+00  6.16D-01  1.70D+00
                    CP:  1.72D+00  1.91D+00  2.07D+00  1.40D+00  1.11D+00
                    CP:  2.25D+00  2.94D+00  3.00D+00  3.00D+00  3.00D+00
                    CP:  3.00D+00  1.84D+00  2.08D+00  2.22D+00
 E= -2530.49883758890     Delta-E=       -0.000000007046 Rises=F Damp=F
 DIIS: error= 1.21D-06 at cycle  20 NSaved=  20.
 NSaved=20 IEnMin=20 EnMin= -2530.49883758890     IErMin=20 ErrMin= 1.21D-06
 ErrMax= 1.21D-06  0.00D+00 EMaxC= 1.00D-01 BMatC= 8.26D-10 BMatP= 2.12D-09
 IDIUse=1 WtCom= 1.00D+00 WtEn= 0.00D+00
 Coeff-Com: -0.187D-07-0.110D-05-0.360D-05 0.253D-05-0.687D-04-0.121D-03
 Coeff-Com:  0.108D-05 0.629D-03-0.612D-03-0.318D-02-0.420D-02 0.220D-01
 Coeff-Com:  0.362D-02-0.879D-01-0.226D-01 0.296D+00-0.136D+00-0.577D+00
 Coeff-Com: -0.227D+00 0.174D+01
 Coeff:     -0.187D-07-0.110D-05-0.360D-05 0.253D-05-0.687D-04-0.121D-03
 Coeff:      0.108D-05 0.629D-03-0.612D-03-0.318D-02-0.420D-02 0.220D-01
 Coeff:      0.362D-02-0.879D-01-0.226D-01 0.296D+00-0.136D+00-0.577D+00
 Coeff:     -0.227D+00 0.174D+01
 Gap=     0.321 Goal=   None    Shift=    0.000
 Gap=     0.348 Goal=   None    Shift=    0.000
 RMSDP=4.31D-07 MaxDP=5.03D-05 DE=-7.05D-09 OVMax= 1.09D-04

 Cycle  21  Pass 1  IDiag  1:
 Restarting incremental Fock formation.
 E= -2530.49883759280     Delta-E=       -0.000000003894 Rises=F Damp=F
 DIIS: error= 4.28D-07 at cycle  21 NSaved=  20.
 NSaved=20 IEnMin=20 EnMin= -2530.49883759280     IErMin=20 ErrMin= 4.28D-07
 ErrMax= 4.28D-07  0.00D+00 EMaxC= 1.00D-01 BMatC= 1.58D-10 BMatP= 8.26D-10
 IDIUse=1 WtCom= 1.00D+00 WtEn= 0.00D+00
 Coeff-Com: -0.578D-06-0.261D-05 0.146D-05-0.145D-04-0.590D-04-0.503D-05
 Coeff-Com:  0.333D-03-0.234D-03-0.131D-02-0.210D-02 0.623D-02 0.658D-02
 Coeff-Com: -0.248D-01-0.162D-01 0.677D-01 0.396D-01-0.127D+00-0.289D+00
 Coeff-Com:  0.332D+00 0.101D+01
 Coeff:     -0.578D-06-0.261D-05 0.146D-05-0.145D-04-0.590D-04-0.503D-05
 Coeff:      0.333D-03-0.234D-03-0.131D-02-0.210D-02 0.623D-02 0.658D-02
 Coeff:     -0.248D-01-0.162D-01 0.677D-01 0.396D-01-0.127D+00-0.289D+00
 Coeff:      0.332D+00 0.101D+01
 Gap=     0.321 Goal=   None    Shift=    0.000
 Gap=     0.348 Goal=   None    Shift=    0.000
 RMSDP=1.36D-07 MaxDP=1.64D-05 DE=-3.89D-09 OVMax= 3.59D-05

 Cycle  22  Pass 1  IDiag  1:
 RMSU=  1.36D-07    CP:  1.00D+00
 E= -2530.49883759321     Delta-E=       -0.000000000414 Rises=F Damp=F
 DIIS: error= 2.80D-07 at cycle  22 NSaved=  20.
 NSaved=20 IEnMin=20 EnMin= -2530.49883759321     IErMin=20 ErrMin= 2.80D-07
 ErrMax= 2.80D-07  0.00D+00 EMaxC= 1.00D-01 BMatC= 6.30D-11 BMatP= 1.58D-10
 IDIUse=1 WtCom= 1.00D+00 WtEn= 0.00D+00
 Coeff-Com: -0.551D-06-0.125D-05 0.154D-04 0.153D-04 0.174D-04-0.738D-04
 Coeff-Com:  0.745D-04 0.497D-03 0.740D-03-0.459D-02 0.360D-03 0.183D-01
 Coeff-Com:  0.178D-02-0.672D-01 0.610D-01 0.132D+00-0.533D-01-0.414D+00
 Coeff-Com:  0.447D+00 0.878D+00
 Coeff:     -0.551D-06-0.125D-05 0.154D-04 0.153D-04 0.174D-04-0.738D-04
 Coeff:      0.745D-04 0.497D-03 0.740D-03-0.459D-02 0.360D-03 0.183D-01
 Coeff:      0.178D-02-0.672D-01 0.610D-01 0.132D+00-0.533D-01-0.414D+00
 Coeff:      0.447D+00 0.878D+00
 Gap=     0.321 Goal=   None    Shift=    0.000
 Gap=     0.348 Goal=   None    Shift=    0.000
 RMSDP=6.20D-08 MaxDP=7.46D-06 DE=-4.14D-10 OVMax= 1.60D-05

 Cycle  23  Pass 1  IDiag  1:
 RMSU=  2.02D-08    CP:  1.00D+00  1.43D+00
 E= -2530.49883759331     Delta-E=       -0.000000000102 Rises=F Damp=F
 DIIS: error= 1.78D-07 at cycle  23 NSaved=  20.
 NSaved=20 IEnMin=20 EnMin= -2530.49883759331     IErMin=20 ErrMin= 1.78D-07
 ErrMax= 1.78D-07  0.00D+00 EMaxC= 1.00D-01 BMatC= 1.31D-11 BMatP= 6.30D-11
 IDIUse=1 WtCom= 1.00D+00 WtEn= 0.00D+00
 Coeff-Com: -0.122D-05-0.951D-06 0.118D-04 0.863D-05-0.652D-04 0.271D-04
 Coeff-Com:  0.209D-03 0.433D-03-0.741D-03-0.133D-02 0.213D-02 0.237D-02
 Coeff-Com: -0.421D-02-0.977D-02 0.129D-01 0.501D-01-0.243D-01-0.253D+00
 Coeff-Com: -0.945D-01 0.132D+01
 Coeff:     -0.122D-05-0.951D-06 0.118D-04 0.863D-05-0.652D-04 0.271D-04
 Coeff:      0.209D-03 0.433D-03-0.741D-03-0.133D-02 0.213D-02 0.237D-02
 Coeff:     -0.421D-02-0.977D-02 0.129D-01 0.501D-01-0.243D-01-0.253D+00
 Coeff:     -0.945D-01 0.132D+01
 Gap=     0.321 Goal=   None    Shift=    0.000
 Gap=     0.348 Goal=   None    Shift=    0.000
 RMSDP=2.99D-08 MaxDP=3.55D-06 DE=-1.02D-10 OVMax= 7.59D-06

 Cycle  24  Pass 1  IDiag  1:
 RMSU=  1.22D-08    CP:  1.00D+00  1.61D+00  1.66D+00
 E= -2530.49883759339     Delta-E=       -0.000000000077 Rises=F Damp=F
 DIIS: error= 1.15D-07 at cycle  24 NSaved=  20.
 NSaved=20 IEnMin=20 EnMin= -2530.49883759339     IErMin=20 ErrMin= 1.15D-07
 ErrMax= 1.15D-07  0.00D+00 EMaxC= 1.00D-01 BMatC= 4.33D-12 BMatP= 1.31D-11
 IDIUse=1 WtCom= 1.00D+00 WtEn= 0.00D+00
 Coeff-Com: -0.431D-05 0.188D-05 0.961D-05-0.618D-05-0.287D-04-0.101D-03
 Coeff-Com: -0.946D-04 0.110D-02-0.598D-03-0.394D-02 0.613D-03 0.160D-01
 Coeff-Com: -0.198D-01-0.331D-01 0.203D-01 0.113D+00-0.129D+00-0.267D+00
 Coeff-Com: -0.212D-01 0.132D+01
 Coeff:     -0.431D-05 0.188D-05 0.961D-05-0.618D-05-0.287D-04-0.101D-03
 Coeff:     -0.946D-04 0.110D-02-0.598D-03-0.394D-02 0.613D-03 0.160D-01
 Coeff:     -0.198D-01-0.331D-01 0.203D-01 0.113D+00-0.129D+00-0.267D+00
 Coeff:     -0.212D-01 0.132D+01
 Gap=     0.321 Goal=   None    Shift=    0.000
 Gap=     0.348 Goal=   None    Shift=    0.000
 RMSDP=1.66D-08 MaxDP=1.75D-06 DE=-7.73D-11 OVMax= 3.68D-06

 Cycle  25  Pass 1  IDiag  1:
 RMSU=  7.12D-09    CP:  1.00D+00  1.69D+00  1.99D+00  1.67D+00
 E= -2530.49883759345     Delta-E=       -0.000000000057 Rises=F Damp=F
 DIIS: error= 5.85D-08 at cycle  25 NSaved=  20.
 NSaved=20 IEnMin=20 EnMin= -2530.49883759345     IErMin=20 ErrMin= 5.85D-08
 ErrMax= 5.85D-08  0.00D+00 EMaxC= 1.00D-01 BMatC= 1.48D-12 BMatP= 4.33D-12
 IDIUse=1 WtCom= 1.00D+00 WtEn= 0.00D+00
 Coeff-Com:  0.176D-05 0.737D-05-0.727D-05-0.131D-04-0.235D-04-0.178D-04
 Coeff-Com:  0.155D-03-0.255D-03-0.256D-04 0.604D-03 0.803D-03-0.359D-02
 Coeff-Com: -0.488D-02-0.131D-02 0.189D-01 0.366D-01-0.337D-01-0.364D+00
 Coeff-Com:  0.310D+00 0.104D+01
 Coeff:      0.176D-05 0.737D-05-0.727D-05-0.131D-04-0.235D-04-0.178D-04
 Coeff:      0.155D-03-0.255D-03-0.256D-04 0.604D-03 0.803D-03-0.359D-02
 Coeff:     -0.488D-02-0.131D-02 0.189D-01 0.366D-01-0.337D-01-0.364D+00
 Coeff:      0.310D+00 0.104D+01
 Gap=     0.321 Goal=   None    Shift=    0.000
 Gap=     0.348 Goal=   None    Shift=    0.000
 RMSDP=7.95D-09 MaxDP=6.43D-07 DE=-5.73D-11 OVMax= 1.45D-06

 SCF Done:  E(UwB97XD) =  -2530.49883759     A.U. after   25 cycles
            NFock= 25  Conv=0.79D-08     -V/T= 2.0031
 <Sx>= 0.0000 <Sy>= 0.0000 <Sz>= 2.0000 <S**2>= 6.0106 S= 2.0021
 <L.S>= 0.000000000000E+00
 KE= 2.522620378751D+03 PE=-9.568486845903D+03 EE= 2.735455897509D+03
 Annihilation of the first spin contaminant:
 S**2 before annihilation     6.0106,   after     6.0000
 Leave Link  502 at Fri May  5 16:31:51 2017, MaxMem=    33554432 cpu:      1512.1
 (Enter /sw/chem/g09/l801.exe)
 DoSCS=F DFT=T ScalE2(SS,OS)=  1.000000  1.000000
 Range of M.O.s used for correlation:     1   305
 NBasis=   305 NAE=    79 NBE=    75 NFC=     0 NFV=     0
 NROrb=    305 NOA=    79 NOB=    75 NVA=   226 NVB=   230

 **** Warning!!: The largest alpha MO coefficient is  0.12214209D+02


 **** Warning!!: The largest beta MO coefficient is  0.11931415D+02

 Leave Link  801 at Fri May  5 16:31:51 2017, MaxMem=    33554432 cpu:         0.1
 (Enter /sw/chem/g09/l1101.exe)
 Using compressed storage, NAtomX=    23.
 Will process     24 centers per pass.
 R6Disp: Adding Grimme-D2 dispersion energy 1st derivatives to the gradient.
 Leave Link 1101 at Fri May  5 16:31:52 2017, MaxMem=    33554432 cpu:         2.8
 (Enter /sw/chem/g09/l1102.exe)
 Symmetrizing basis deriv contribution to polar:
 IMax=3 JMax=2 DiffMx= 0.00D+00
 Leave Link 1102 at Fri May  5 16:31:52 2017, MaxMem=    33554432 cpu:         0.2
 (Enter /sw/chem/g09/l1110.exe)
 Forming Gx(P) for the SCF density, NAtomX=    23.
 Integral derivatives from FoFJK, PRISM(SPDF).
 Do as many integral derivatives as possible in FoFJK.
 G2DrvN: MDV=      33554144.
 G2DrvN: will do     8 centers at a time, making    3 passes.
 G2DrvN:  IPasSy=1 do centers    0 through    7.
 Calling FoFCou, ICntrl=  3107 FMM=F I1Cent=   0 AccDes= 0.00D+00.
 FoFJK:  IHMeth= 1 ICntrl=    3107 DoSepK=T KAlg= 0 I1Cent=   0 FoldK=F
 IRaf=         1 NMat=   1 IRICut=       1 DoRegI=T DoRafI=F ISym2E= 0.
 FoFCou: FMM=F IPFlag=           0 FMFlag=      100000 FMFlg1=           0
         NFxFlg=           0 DoJE=F BraDBF=F KetDBF=F FulRan=T
         wScrn=  0.000000 ICntrl=    3507 IOpCl=  0 I1Cent=           0 NGrid=           0
         NMat0=    1 NMatS0=      1 NMatT0=    0 NMatD0=    1 NMtDS0=    0 NMtDT0=    0
 Symmetry not used in FoFCou.
 G2DrvN:  IPasSy=1 do centers    8 through   15.
 Calling FoFCou, ICntrl=  3107 FMM=F I1Cent=   0 AccDes= 0.00D+00.
 G2DrvN:  IPasSy=1 do centers   16 through   23.
 Calling FoFCou, ICntrl=  3107 FMM=F I1Cent=   0 AccDes= 0.00D+00.
 End of G2Drv F.D. properties file   721 does not exist.
 End of G2Drv F.D. properties file   722 does not exist.
 End of G2Drv F.D. properties file   788 does not exist.
 Leave Link 1110 at Fri May  5 16:40:35 2017, MaxMem=    33554432 cpu:      1417.9
 (Enter /sw/chem/g09/l1002.exe)
 Minotr:  UHF open shell wavefunction.
          IDoAtm=11111111111111111111111
          Direct CPHF calculation.
          Differentiating once with respect to electric field.
                with respect to dipole field.
          Differentiating once with respect to nuclear coordinates.
          Requested convergence is 1.0D-08 RMS, and 1.0D-07 maximum.
          Secondary convergence is 1.0D-12 RMS, and 1.0D-12 maximum.
          NewPWx=T KeepS1=F KeepF1=F KeepIn=T MapXYZ=F SortEE=F KeepMc=T.
          MDV=      33553588 using IRadAn=       2.
 Generate precomputed XC quadrature information.
          Solving linear equations simultaneously, MaxMat=       0.
 FoFJK:  IHMeth= 1 ICntrl=       0 DoSepK=T KAlg= 0 I1Cent=   0 FoldK=F
 IRaf=         1 NMat=  36 IRICut=       1 DoRegI=T DoRafI=F ISym2E= 0.
 FoFCou: FMM=F IPFlag=           0 FMFlag=      100000 FMFlg1=           0
         NFxFlg=           0 DoJE=F BraDBF=F KetDBF=F FulRan=T
         wScrn=  0.000000 ICntrl=     500 IOpCl=  0 I1Cent=           0 NGrid=           0
         NMat0=   36 NMatS0=     36 NMatT0=    0 NMatD0=   36 NMtDS0=    0 NMtDT0=    0
 Symmetry not used in FoFCou.
          There are    72 degrees of freedom in the 1st order CPHF.  IDoFFX=6 NUNeed=     3.
     72 vectors produced by pass  0 Test12= 4.88D-14 1.39D-09 XBig12= 8.69D+01 2.34D+00.
 AX will form    36 AO Fock derivatives at one time.
     72 vectors produced by pass  1 Test12= 4.88D-14 1.39D-09 XBig12= 7.24D+00 4.04D-01.
     72 vectors produced by pass  2 Test12= 4.88D-14 1.39D-09 XBig12= 2.81D-01 1.02D-01.
     71 vectors produced by pass  3 Test12= 4.88D-14 1.39D-09 XBig12= 5.25D-03 1.10D-02.
     69 vectors produced by pass  4 Test12= 4.88D-14 1.39D-09 XBig12= 8.65D-05 1.48D-03.
     69 vectors produced by pass  5 Test12= 4.88D-14 1.39D-09 XBig12= 1.07D-06 1.42D-04.
     69 vectors produced by pass  6 Test12= 4.88D-14 1.39D-09 XBig12= 1.13D-08 1.03D-05.
     48 vectors produced by pass  7 Test12= 4.88D-14 1.39D-09 XBig12= 1.22D-10 9.74D-07.
     20 vectors produced by pass  8 Test12= 4.88D-14 1.39D-09 XBig12= 1.35D-12 8.79D-08.
      3 vectors produced by pass  9 Test12= 4.88D-14 1.39D-09 XBig12= 1.62D-14 9.53D-09.
 InvSVY:  IOpt=1 It=  1 EMax= 1.07D-14
 Solved reduced A of dimension   565 with    72 vectors.
 FullF1:  Do perturbations    1 to     3.
 Isotropic polarizability for W=    0.000000      109.31 Bohr**3.
 End of Minotr F.D. properties file   721 does not exist.
 End of Minotr F.D. properties file   722 does not exist.
 End of Minotr F.D. properties file   788 does not exist.
 Leave Link 1002 at Fri May  5 17:07:13 2017, MaxMem=    33554432 cpu:      4415.7
 (Enter /sw/chem/g09/l601.exe)
 Copying SCF densities to generalized density rwf, IOpCl= 1 IROHF=0.

 **********************************************************************

            Population analysis using the SCF density.

 **********************************************************************

 Alpha  occ. eigenvalues -- -215.96699 -66.40991 -66.40641 -24.89472 -24.82027
 Alpha  occ. eigenvalues --  -24.81208 -24.81114 -24.81080 -24.80890 -24.80715
 Alpha  occ. eigenvalues --  -21.16465 -21.16310 -21.15932 -19.23690 -19.23610
 Alpha  occ. eigenvalues --  -10.35818 -10.35725 -10.35713 -10.35593  -5.50349
 Alpha  occ. eigenvalues --   -5.49998  -3.85014  -3.84972  -3.84755  -3.84668
 Alpha  occ. eigenvalues --   -3.84614  -3.84395  -3.08204  -2.02845  -2.02734
 Alpha  occ. eigenvalues --   -2.02648  -1.30205  -1.29752  -1.27816  -1.27383
 Alpha  occ. eigenvalues --   -1.27267  -1.26967  -1.06542  -1.05837  -0.94394
 Alpha  occ. eigenvalues --   -0.93720  -0.74748  -0.74042  -0.65050  -0.64749
 Alpha  occ. eigenvalues --   -0.63681  -0.62267  -0.57985  -0.57817  -0.57447
 Alpha  occ. eigenvalues --   -0.57403  -0.57182  -0.56772  -0.56581  -0.55709
 Alpha  occ. eigenvalues --   -0.52645  -0.52131  -0.51913  -0.51481  -0.51331
 Alpha  occ. eigenvalues --   -0.51027  -0.50653  -0.50376  -0.50036  -0.49791
 Alpha  occ. eigenvalues --   -0.49568  -0.49023  -0.48045  -0.47575  -0.46475
 Alpha  occ. eigenvalues --   -0.45931  -0.45169  -0.43877  -0.43818  -0.40778
 Alpha  occ. eigenvalues --   -0.36626  -0.36240  -0.35505  -0.34830
 Alpha virt. eigenvalues --   -0.02728   0.00632   0.01586   0.05331   0.07859
 Alpha virt. eigenvalues --    0.10097   0.10928   0.11920   0.13645   0.14187
 Alpha virt. eigenvalues --    0.15163   0.15586   0.16339   0.17005   0.18466
 Alpha virt. eigenvalues --    0.19318   0.19513   0.21110   0.21263   0.22038
 Alpha virt. eigenvalues --    0.22318   0.22509   0.23409   0.24044   0.24827
 Alpha virt. eigenvalues --    0.25968   0.26582   0.27028   0.28593   0.29960
 Alpha virt. eigenvalues --    0.30562   0.31097   0.32256   0.32382   0.33571
 Alpha virt. eigenvalues --    0.33988   0.35558   0.36147   0.36603   0.37267
 Alpha virt. eigenvalues --    0.37746   0.38560   0.39872   0.40912   0.41661
 Alpha virt. eigenvalues --    0.43370   0.44612   0.47453   0.48374   0.49363
 Alpha virt. eigenvalues --    0.49507   0.50967   0.52148   0.53174   0.54327
 Alpha virt. eigenvalues --    0.54879   0.56677   0.57541   0.59791   0.60238
 Alpha virt. eigenvalues --    0.60790   0.61476   0.61662   0.62810   0.63379
 Alpha virt. eigenvalues --    0.64476   0.66398   0.69528   0.71636   0.72949
 Alpha virt. eigenvalues --    0.73389   0.75141   0.77355   0.80096   0.80323
 Alpha virt. eigenvalues --    0.83743   0.85665   0.88567   0.89348   0.91940
 Alpha virt. eigenvalues --    0.93895   0.96286   1.01833   1.03688   1.05503
 Alpha virt. eigenvalues --    1.09308   1.23751   1.26165   1.26814   1.30053
 Alpha virt. eigenvalues --    1.30671   1.31670   1.32387   1.33556   1.34259
 Alpha virt. eigenvalues --    1.34386   1.35183   1.35558   1.36069   1.36319
 Alpha virt. eigenvalues --    1.36687   1.37287   1.37745   1.37987   1.38733
 Alpha virt. eigenvalues --    1.38873   1.39737   1.41012   1.41693   1.42877
 Alpha virt. eigenvalues --    1.42947   1.44802   1.45182   1.45556   1.46584
 Alpha virt. eigenvalues --    1.47767   1.48618   1.49420   1.49956   1.50381
 Alpha virt. eigenvalues --    1.50676   1.51659   1.53914   1.54320   1.55075
 Alpha virt. eigenvalues --    1.56632   1.59445   1.60448   1.62545   1.63098
 Alpha virt. eigenvalues --    1.64959   1.67161   1.69656   1.71843   1.73361
 Alpha virt. eigenvalues --    1.75276   1.75791   1.78912   1.79099   1.80258
 Alpha virt. eigenvalues --    1.82424   1.83903   1.89006   1.91075   1.91458
 Alpha virt. eigenvalues --    1.93245   1.98050   1.98789   2.00826   2.07263
 Alpha virt. eigenvalues --    2.07817   2.11294   2.12693   2.12817   2.17086
 Alpha virt. eigenvalues --    2.18182   2.19816   2.23773   2.24820   2.26916
 Alpha virt. eigenvalues --    2.27721   2.32197   2.32718   2.34271   2.35440
 Alpha virt. eigenvalues --    2.35891   2.39474   2.40206   2.42564   2.45308
 Alpha virt. eigenvalues --    2.47211   2.50813   2.52847   2.57385   2.64041
 Alpha virt. eigenvalues --    2.65915   2.68722   2.70151   2.70609   2.72426
 Alpha virt. eigenvalues --    2.74171   2.75212   2.78591   2.79801   2.80630
 Alpha virt. eigenvalues --    2.82499   2.83384   2.84818   2.85818   2.87079
 Alpha virt. eigenvalues --    2.87719   2.88462   2.90094   2.90981   2.92780
 Alpha virt. eigenvalues --    2.96904   2.99134   3.01670   3.01906   3.02953
 Alpha virt. eigenvalues --    3.03925   3.05297   3.08694   3.13447   3.13658
 Alpha virt. eigenvalues --    3.14809   3.23747   3.25670   3.28545   3.31373
 Alpha virt. eigenvalues --    3.33133   3.37211   3.41833   3.43190   3.57275
 Alpha virt. eigenvalues --    3.58147   3.64153   3.74133  10.07560  10.21226
 Alpha virt. eigenvalues --   21.90221  21.93956  22.20191  22.22778  43.55698
 Alpha virt. eigenvalues --   43.62044
  Beta  occ. eigenvalues -- -215.96584 -66.40989 -66.40634 -24.83913 -24.82022
  Beta  occ. eigenvalues --  -24.81208 -24.81108 -24.81075 -24.80887 -24.80717
  Beta  occ. eigenvalues --  -21.12161 -21.11963 -21.10459 -19.23618 -19.23555
  Beta  occ. eigenvalues --  -10.35807 -10.35718 -10.35694 -10.35597  -5.50348
  Beta  occ. eigenvalues --   -5.49991  -3.85009  -3.84968  -3.84756  -3.84663
  Beta  occ. eigenvalues --   -3.84607  -3.84382  -2.92565  -1.87227  -1.86896
  Beta  occ. eigenvalues --   -1.83414  -1.30194  -1.29744  -1.27806  -1.27373
  Beta  occ. eigenvalues --   -1.27258  -1.26964  -1.06227  -1.05568  -0.94301
  Beta  occ. eigenvalues --   -0.93646  -0.74535  -0.73835  -0.64959  -0.64604
  Beta  occ. eigenvalues --   -0.63569  -0.62196  -0.57854  -0.57764  -0.57371
  Beta  occ. eigenvalues --   -0.57337  -0.57122  -0.56735  -0.56316  -0.55385
  Beta  occ. eigenvalues --   -0.52561  -0.52065  -0.51892  -0.51415  -0.51260
  Beta  occ. eigenvalues --   -0.50816  -0.50493  -0.50125  -0.49799  -0.49584
  Beta  occ. eigenvalues --   -0.49367  -0.48967  -0.48033  -0.47567  -0.45919
  Beta  occ. eigenvalues --   -0.44457  -0.43449  -0.42230  -0.41642  -0.40214
  Beta virt. eigenvalues --   -0.05409  -0.01979   0.00746   0.04392   0.06079
  Beta virt. eigenvalues --    0.06689   0.07476   0.08787   0.09047   0.10107
  Beta virt. eigenvalues --    0.11310   0.13162   0.13911   0.14263   0.15265
  Beta virt. eigenvalues --    0.16399   0.17070   0.17162   0.18754   0.19491
  Beta virt. eigenvalues --    0.19950   0.21352   0.21399   0.22167   0.22415
  Beta virt. eigenvalues --    0.22610   0.23517   0.24179   0.24931   0.25980
  Beta virt. eigenvalues --    0.26726   0.27143   0.28937   0.30133   0.30936
  Beta virt. eigenvalues --    0.31460   0.32483   0.32750   0.33624   0.34589
  Beta virt. eigenvalues --    0.35920   0.36325   0.36691   0.37529   0.37942
  Beta virt. eigenvalues --    0.38722   0.40088   0.41426   0.42078   0.43680
  Beta virt. eigenvalues --    0.44881   0.47538   0.48549   0.49718   0.50088
  Beta virt. eigenvalues --    0.51553   0.52786   0.54013   0.54832   0.55548
  Beta virt. eigenvalues --    0.57296   0.58271   0.60006   0.60445   0.60870
  Beta virt. eigenvalues --    0.61642   0.62130   0.63096   0.64464   0.64668
  Beta virt. eigenvalues --    0.67072   0.69743   0.72271   0.73355   0.74053
  Beta virt. eigenvalues --    0.75822   0.77589   0.80469   0.80952   0.84388
  Beta virt. eigenvalues --    0.86244   0.88967   0.90018   0.92101   0.94583
  Beta virt. eigenvalues --    0.96476   1.01981   1.03963   1.05507   1.09632
  Beta virt. eigenvalues --    1.24061   1.26397   1.27067   1.30267   1.30991
  Beta virt. eigenvalues --    1.31849   1.32832   1.33651   1.34472   1.34583
  Beta virt. eigenvalues --    1.35473   1.35729   1.36158   1.36336   1.36780
  Beta virt. eigenvalues --    1.37469   1.37835   1.38209   1.38840   1.38985
  Beta virt. eigenvalues --    1.39815   1.41188   1.41861   1.42988   1.43202
  Beta virt. eigenvalues --    1.45186   1.45217   1.46012   1.46899   1.47830
  Beta virt. eigenvalues --    1.48914   1.49572   1.50103   1.50488   1.50801
  Beta virt. eigenvalues --    1.52435   1.54146   1.54871   1.55228   1.57235
  Beta virt. eigenvalues --    1.59500   1.61000   1.63634   1.64941   1.65316
  Beta virt. eigenvalues --    1.69019   1.70860   1.73251   1.74450   1.75414
  Beta virt. eigenvalues --    1.76001   1.79282   1.79466   1.80568   1.82635
  Beta virt. eigenvalues --    1.84340   1.89193   1.91457   1.91825   1.93709
  Beta virt. eigenvalues --    1.98589   2.00598   2.01484   2.07626   2.08055
  Beta virt. eigenvalues --    2.12004   2.13578   2.17522   2.18457   2.19465
  Beta virt. eigenvalues --    2.23552   2.24826   2.27521   2.30630   2.32722
  Beta virt. eigenvalues --    2.33109   2.33563   2.34659   2.36466   2.37000
  Beta virt. eigenvalues --    2.40240   2.40744   2.43174   2.46195   2.47303
  Beta virt. eigenvalues --    2.51121   2.53145   2.58465   2.65774   2.66710
  Beta virt. eigenvalues --    2.70391   2.70638   2.71010   2.72990   2.75272
  Beta virt. eigenvalues --    2.75984   2.79582   2.81126   2.81800   2.83840
  Beta virt. eigenvalues --    2.85357   2.85948   2.86954   2.88342   2.88639
  Beta virt. eigenvalues --    2.89025   2.90680   2.91932   2.95484   2.98000
  Beta virt. eigenvalues --    3.04270   3.07200   3.08550   3.09406   3.10898
  Beta virt. eigenvalues --    3.12062   3.14166   3.14522   3.16577   3.17808
  Beta virt. eigenvalues --    3.24498   3.26810   3.29003   3.32961   3.35435
  Beta virt. eigenvalues --    3.39452   3.42168   3.43461   3.57372   3.58221
  Beta virt. eigenvalues --    3.68225   3.77303  10.07583  10.21246  21.90234
  Beta virt. eigenvalues --   21.93968  22.20206  22.22793  43.55754  43.62113
          Condensed to atoms (all electrons):
               1          2          3          4          5          6
     1  O    8.105971  -0.021155   0.407416   0.000272   0.191628  -0.022102
     2  O   -0.021155   8.149749   0.000104   0.452334   0.116666  -0.002286
     3  Si   0.407416   0.000104  11.525431   0.001026  -0.047015  -0.000193
     4  Si   0.000272   0.452334   0.001026  11.551753  -0.062841   0.000018
     5  Cr   0.191628   0.116666  -0.047015  -0.062841  22.994645   0.088194
     6  C   -0.022102  -0.002286  -0.000193   0.000018   0.088194   5.041871
     7  H    0.002968   0.000218  -0.000742   0.000044  -0.004363   0.389093
     8  H    0.001118   0.000195  -0.000011   0.000043  -0.007763   0.421929
     9  C   -0.018106  -0.002292  -0.001978   0.000040   0.086117   0.387325
    10  H    0.006599   0.000108  -0.000019  -0.000019  -0.001458  -0.014970
    11  H    0.000497   0.000156  -0.000161   0.000037  -0.011258  -0.049890
    12  C   -0.001398  -0.006586  -0.000249   0.006269   0.072922  -0.013339
    13  H    0.000192   0.001286  -0.000057  -0.000499  -0.009040   0.000436
    14  H    0.000385  -0.004789  -0.000055  -0.013259   0.002569   0.000933
    15  C   -0.003105  -0.007220   0.000015  -0.004782   0.084322   0.000615
    16  H    0.000135   0.001137   0.000042  -0.000478  -0.018729   0.000742
    17  H    0.000213   0.001120  -0.000078   0.002558   0.003091  -0.000420
    18  F   -0.020114  -0.000678   0.298777   0.005331   0.043572   0.000005
    19  F   -0.000010  -0.012925   0.001953   0.350194   0.009221   0.000000
    20  F    0.000002  -0.015302  -0.000018   0.297016   0.020712   0.000002
    21  F   -0.010977  -0.000361   0.319807  -0.000413   0.029081   0.000058
    22  F   -0.011355   0.000001   0.336997   0.000030   0.015252   0.000043
    23  F    0.000001  -0.016510  -0.000080   0.332059   0.018071   0.000000
               7          8          9         10         11         12
     1  O    0.002968   0.001118  -0.018106   0.006599   0.000497  -0.001398
     2  O    0.000218   0.000195  -0.002292   0.000108   0.000156  -0.006586
     3  Si  -0.000742  -0.000011  -0.001978  -0.000019  -0.000161  -0.000249
     4  Si   0.000044   0.000043   0.000040  -0.000019   0.000037   0.006269
     5  Cr  -0.004363  -0.007763   0.086117  -0.001458  -0.011258   0.072922
     6  C    0.389093   0.421929   0.387325  -0.014970  -0.049890  -0.013339
     7  H    0.438368  -0.014369  -0.017290  -0.000320   0.002231   0.000041
     8  H   -0.014369   0.476982  -0.048034   0.001651  -0.001414  -0.000237
     9  C   -0.017290  -0.048034   5.015110   0.391190   0.424073   0.005444
    10  H   -0.000320   0.001651   0.391190   0.432309  -0.014367   0.000516
    11  H    0.002231  -0.001414   0.424073  -0.014367   0.476467   0.000966
    12  C    0.000041  -0.000237   0.005444   0.000516   0.000966   5.186894
    13  H   -0.000064   0.000182   0.002074   0.000404  -0.001995   0.417343
    14  H    0.000006   0.000060  -0.000225   0.000115   0.000033   0.309067
    15  C    0.000100   0.002068  -0.004535  -0.000373  -0.000836   0.345805
    16  H    0.000285  -0.001994  -0.002266  -0.000139   0.000953  -0.044760
    17  H   -0.000039  -0.000004   0.000175   0.000001   0.000017  -0.018296
    18  F    0.000029  -0.000001   0.000002   0.000027  -0.000002  -0.000001
    19  F    0.000000   0.000000   0.000000   0.000000   0.000000   0.000011
    20  F    0.000000   0.000000  -0.000001   0.000000   0.000000  -0.020117
    21  F   -0.000097   0.000000   0.000002   0.000001   0.000000   0.000000
    22  F   -0.000099   0.000000  -0.000077  -0.000304  -0.000001   0.000000
    23  F    0.000000   0.000000   0.000000   0.000000   0.000000  -0.000359
              13         14         15         16         17         18
     1  O    0.000192   0.000385  -0.003105   0.000135   0.000213  -0.020114
     2  O    0.001286  -0.004789  -0.007220   0.001137   0.001120  -0.000678
     3  Si  -0.000057  -0.000055   0.000015   0.000042  -0.000078   0.298777
     4  Si  -0.000499  -0.013259  -0.004782  -0.000478   0.002558   0.005331
     5  Cr  -0.009040   0.002569   0.084322  -0.018729   0.003091   0.043572
     6  C    0.000436   0.000933   0.000615   0.000742  -0.000420   0.000005
     7  H   -0.000064   0.000006   0.000100   0.000285  -0.000039   0.000029
     8  H    0.000182   0.000060   0.002068  -0.001994  -0.000004  -0.000001
     9  C    0.002074  -0.000225  -0.004535  -0.002266   0.000175   0.000002
    10  H    0.000404   0.000115  -0.000373  -0.000139   0.000001   0.000027
    11  H   -0.001995   0.000033  -0.000836   0.000953   0.000017  -0.000002
    12  C    0.417343   0.309067   0.345805  -0.044760  -0.018296  -0.000001
    13  H    0.482474  -0.002255  -0.060114  -0.000664   0.001448   0.000001
    14  H   -0.002255   0.525116  -0.044031   0.003295  -0.011441  -0.000075
    15  C   -0.060114  -0.044031   5.121080   0.420471   0.392913   0.000071
    16  H   -0.000664   0.003295   0.420471   0.479515  -0.012693   0.000000
    17  H    0.001448  -0.011441   0.392913  -0.012693   0.441009   0.000001
    18  F    0.000001  -0.000075   0.000071   0.000000   0.000001   9.006285
    19  F   -0.000001  -0.000113  -0.000002   0.000000  -0.000024  -0.000203
    20  F    0.000433   0.050810  -0.002850   0.000002  -0.000571  -0.000005
    21  F    0.000000   0.000000  -0.000002   0.000000   0.000000  -0.003350
    22  F    0.000000   0.000000   0.000000   0.000000   0.000000  -0.007238
    23  F   -0.000003  -0.000731  -0.001137   0.000002   0.002324   0.000000
              19         20         21         22         23
     1  O   -0.000010   0.000002  -0.010977  -0.011355   0.000001
     2  O   -0.012925  -0.015302  -0.000361   0.000001  -0.016510
     3  Si   0.001953  -0.000018   0.319807   0.336997  -0.000080
     4  Si   0.350194   0.297016  -0.000413   0.000030   0.332059
     5  Cr   0.009221   0.020712   0.029081   0.015252   0.018071
     6  C    0.000000   0.000002   0.000058   0.000043   0.000000
     7  H    0.000000   0.000000  -0.000097  -0.000099   0.000000
     8  H    0.000000   0.000000   0.000000   0.000000   0.000000
     9  C    0.000000  -0.000001   0.000002  -0.000077   0.000000
    10  H    0.000000   0.000000   0.000001  -0.000304   0.000000
    11  H    0.000000   0.000000   0.000000  -0.000001   0.000000
    12  C    0.000011  -0.020117   0.000000   0.000000  -0.000359
    13  H   -0.000001   0.000433   0.000000   0.000000  -0.000003
    14  H   -0.000113   0.050810   0.000000   0.000000  -0.000731
    15  C   -0.000002  -0.002850  -0.000002   0.000000  -0.001137
    16  H    0.000000   0.000002   0.000000   0.000000   0.000002
    17  H   -0.000024  -0.000571   0.000000   0.000000   0.002324
    18  F   -0.000203  -0.000005  -0.003350  -0.007238   0.000000
    19  F    8.975952  -0.007649  -0.000001   0.000000  -0.008508
    20  F   -0.007649   9.016546   0.000000   0.000000  -0.003886
    21  F   -0.000001   0.000000   8.995819  -0.008731   0.000000
    22  F    0.000000   0.000000  -0.008731   9.000362   0.000000
    23  F   -0.008508  -0.003886   0.000000   0.000000   9.005056
          Atomic-Atomic Spin Densities.
               1          2          3          4          5          6
     1  O    0.059834   0.004102   0.003466   0.000198  -0.050577  -0.000199
     2  O    0.004102   0.082708   0.001028   0.010366  -0.064915   0.000179
     3  Si   0.003466   0.001028   0.011669   0.000017  -0.005739  -0.000009
     4  Si   0.000198   0.010366   0.000017   0.000560  -0.002111   0.000020
     5  Cr  -0.050577  -0.064915  -0.005739  -0.002111   3.976628   0.011667
     6  C   -0.000199   0.000179  -0.000009   0.000020   0.011667  -0.013152
     7  H    0.000696   0.000025  -0.000055   0.000003  -0.001220   0.000113
     8  H    0.000013  -0.000017  -0.000002  -0.000002  -0.000525   0.000203
     9  C   -0.000838  -0.000332   0.000175  -0.000053   0.011611  -0.012178
    10  H    0.001101  -0.000019  -0.000021  -0.000001  -0.001276   0.000031
    11  H   -0.000048   0.000009  -0.000016   0.000004  -0.001790   0.001111
    12  C    0.000229   0.000410   0.000054   0.000140   0.009234   0.001033
    13  H   -0.000021  -0.000041  -0.000003  -0.000009  -0.000574  -0.000154
    14  H    0.000015   0.000397  -0.000001   0.000081  -0.000064  -0.000018
    15  C   -0.000437  -0.000595  -0.000031  -0.000023   0.009864  -0.000575
    16  H    0.000009   0.000019   0.000001   0.000006  -0.001450   0.000107
    17  H   -0.000016   0.000931  -0.000006   0.000126  -0.001077  -0.000112
    18  F   -0.000239  -0.000190  -0.000724  -0.000015   0.000164   0.000000
    19  F   -0.000001  -0.000430  -0.000018  -0.000131  -0.000067   0.000000
    20  F    0.000000  -0.000642  -0.000001  -0.000597   0.000123   0.000000
    21  F   -0.000339  -0.000031  -0.000675   0.000000   0.000054   0.000000
    22  F    0.000035   0.000000  -0.000023   0.000000   0.000057   0.000000
    23  F    0.000000  -0.000317   0.000001   0.000076   0.000045   0.000000
               7          8          9         10         11         12
     1  O    0.000696   0.000013  -0.000838   0.001101  -0.000048   0.000229
     2  O    0.000025  -0.000017  -0.000332  -0.000019   0.000009   0.000410
     3  Si  -0.000055  -0.000002   0.000175  -0.000021  -0.000016   0.000054
     4  Si   0.000003  -0.000002  -0.000053  -0.000001   0.000004   0.000140
     5  Cr  -0.001220  -0.000525   0.011611  -0.001276  -0.001790   0.009234
     6  C    0.000113   0.000203  -0.012178   0.000031   0.001111   0.001033
     7  H    0.004292   0.000199   0.000386   0.000063   0.000081  -0.000044
     8  H    0.000199   0.004009   0.000688   0.000129  -0.000292  -0.000031
     9  C    0.000386   0.000688   0.023217  -0.000445  -0.000862  -0.000258
    10  H    0.000063   0.000129  -0.000445   0.003854   0.000106   0.000002
    11  H    0.000081  -0.000292  -0.000862   0.000106   0.003325  -0.000098
    12  C   -0.000044  -0.000031  -0.000258   0.000002  -0.000098  -0.015590
    13  H    0.000003   0.000014  -0.000028   0.000021   0.000092  -0.000065
    14  H    0.000001   0.000002   0.000092   0.000005  -0.000015   0.000602
    15  C    0.000102  -0.000202  -0.001698  -0.000108   0.000644  -0.012107
    16  H   -0.000013   0.000139   0.000497   0.000015  -0.000162   0.001045
    17  H    0.000006   0.000037  -0.000035   0.000005   0.000005  -0.000190
    18  F    0.000000   0.000000   0.000001   0.000000   0.000000  -0.000001
    19  F    0.000000   0.000000   0.000000   0.000000   0.000000   0.000000
    20  F    0.000000   0.000000  -0.000001   0.000000   0.000000  -0.000054
    21  F    0.000000   0.000000   0.000000   0.000000   0.000000   0.000000
    22  F    0.000000   0.000000   0.000000  -0.000002   0.000000   0.000000
    23  F    0.000000   0.000000   0.000000   0.000000   0.000000  -0.000002
              13         14         15         16         17         18
     1  O   -0.000021   0.000015  -0.000437   0.000009  -0.000016  -0.000239
     2  O   -0.000041   0.000397  -0.000595   0.000019   0.000931  -0.000190
     3  Si  -0.000003  -0.000001  -0.000031   0.000001  -0.000006  -0.000724
     4  Si  -0.000009   0.000081  -0.000023   0.000006   0.000126  -0.000015
     5  Cr  -0.000574  -0.000064   0.009864  -0.001450  -0.001077   0.000164
     6  C   -0.000154  -0.000018  -0.000575   0.000107  -0.000112   0.000000
     7  H    0.000003   0.000001   0.000102  -0.000013   0.000006   0.000000
     8  H    0.000014   0.000002  -0.000202   0.000139   0.000037   0.000000
     9  C   -0.000028   0.000092  -0.001698   0.000497  -0.000035   0.000001
    10  H    0.000021   0.000005  -0.000108   0.000015   0.000005   0.000000
    11  H    0.000092  -0.000015   0.000644  -0.000162   0.000005   0.000000
    12  C   -0.000065   0.000602  -0.012107   0.001045  -0.000190  -0.000001
    13  H    0.003723   0.000203   0.000963  -0.000280   0.000120   0.000000
    14  H    0.000203   0.003123   0.000000   0.000097   0.000084   0.000000
    15  C    0.000963   0.000000   0.026269  -0.001177  -0.000252   0.000002
    16  H   -0.000280   0.000097  -0.001177   0.003045   0.000299   0.000000
    17  H    0.000120   0.000084  -0.000252   0.000299   0.003341   0.000000
    18  F    0.000000   0.000000   0.000002   0.000000   0.000000   0.002340
    19  F    0.000000   0.000000   0.000000   0.000000   0.000000   0.000005
    20  F   -0.000001  -0.000082  -0.000001   0.000000  -0.000007   0.000000
    21  F    0.000000   0.000000   0.000000   0.000000   0.000000   0.000016
    22  F    0.000000   0.000000   0.000000   0.000000   0.000000   0.000014
    23  F    0.000000   0.000002  -0.000001   0.000000  -0.000019   0.000000
              19         20         21         22         23
     1  O   -0.000001   0.000000  -0.000339   0.000035   0.000000
     2  O   -0.000430  -0.000642  -0.000031   0.000000  -0.000317
     3  Si  -0.000018  -0.000001  -0.000675  -0.000023   0.000001
     4  Si  -0.000131  -0.000597   0.000000   0.000000   0.000076
     5  Cr  -0.000067   0.000123   0.000054   0.000057   0.000045
     6  C    0.000000   0.000000   0.000000   0.000000   0.000000
     7  H    0.000000   0.000000   0.000000   0.000000   0.000000
     8  H    0.000000   0.000000   0.000000   0.000000   0.000000
     9  C    0.000000  -0.000001   0.000000   0.000000   0.000000
    10  H    0.000000   0.000000   0.000000  -0.000002   0.000000
    11  H    0.000000   0.000000   0.000000   0.000000   0.000000
    12  C    0.000000  -0.000054   0.000000   0.000000  -0.000002
    13  H    0.000000  -0.000001   0.000000   0.000000   0.000000
    14  H    0.000000  -0.000082   0.000000   0.000000   0.000002
    15  C    0.000000  -0.000001   0.000000   0.000000  -0.000001
    16  H    0.000000   0.000000   0.000000   0.000000   0.000000
    17  H    0.000000  -0.000007   0.000000   0.000000  -0.000019
    18  F    0.000005   0.000000   0.000016   0.000014   0.000000
    19  F    0.001197   0.000012   0.000000   0.000000  -0.000002
    20  F    0.000012   0.002235   0.000000   0.000000   0.000003
    21  F    0.000000   0.000000   0.001756   0.000000   0.000000
    22  F    0.000000   0.000000   0.000000  -0.000472   0.000000
    23  F   -0.000002   0.000003   0.000000   0.000000   0.000022
 Mulliken charges and spin densities:
               1          2
     1  O   -0.609077   0.016983
     2  O   -0.632971   0.032644
     3  Si   1.159088   0.009085
     4  Si   1.083264   0.008654
     5  Cr   0.386404   3.888064
     6  C   -0.228065  -0.011930
     7  H    0.204003   0.004641
     8  H    0.169599   0.004363
     9  C   -0.216750   0.019938
    10  H    0.199047   0.003462
    11  H    0.174495   0.002094
    12  C   -0.239937  -0.015689
    13  H    0.168418   0.003966
    14  H    0.184585   0.004524
    15  C   -0.238473   0.020638
    16  H    0.175144   0.002199
    17  H    0.198696   0.003240
    18  F   -0.322436   0.001372
    19  F   -0.307895   0.000564
    20  F   -0.335124   0.000987
    21  F   -0.320835   0.000781
    22  F   -0.324879  -0.000389
    23  F   -0.326299  -0.000192
 Sum of Mulliken charges =   0.00000   4.00000
 Mulliken charges and spin densities with hydrogens summed into heavy atoms:
               1          2
     1  O   -0.609077   0.016983
     2  O   -0.632971   0.032644
     3  Si   1.159088   0.009085
     4  Si   1.083264   0.008654
     5  Cr   0.386404   3.888064
     6  C    0.145536  -0.002926
     9  C    0.156792   0.025495
    12  C    0.113066  -0.007200
    15  C    0.135366   0.026077
    18  F   -0.322436   0.001372
    19  F   -0.307895   0.000564
    20  F   -0.335124   0.000987
    21  F   -0.320835   0.000781
    22  F   -0.324879  -0.000389
    23  F   -0.326299  -0.000192
 APT charges:
               1
     1  O   -1.260986
     2  O   -1.298397
     3  Si   2.357334
     4  Si   2.399525
     5  Cr   1.245815
     6  C   -0.027511
     7  H    0.088542
     8  H    0.057678
     9  C   -0.044937
    10  H    0.082516
    11  H    0.051473
    12  C   -0.033467
    13  H    0.057864
    14  H    0.107609
    15  C   -0.058752
    16  H    0.051368
    17  H    0.079220
    18  F   -0.630984
    19  F   -0.631723
    20  F   -0.661134
    21  F   -0.634519
    22  F   -0.648707
    23  F   -0.647827
 Sum of APT charges =   0.00000
 APT charges with hydrogens summed into heavy atoms:
               1
     1  O   -1.260986
     2  O   -1.298397
     3  Si   2.357334
     4  Si   2.399525
     5  Cr   1.245815
     6  C    0.118709
     9  C    0.089052
    12  C    0.132006
    15  C    0.071836
    18  F   -0.630984
    19  F   -0.631723
    20  F   -0.661134
    21  F   -0.634519
    22  F   -0.648707
    23  F   -0.647827
 Electronic spatial extent (au):  <R**2>=         598706.5017
 Charge=              0.0000 electrons
 Dipole moment (field-independent basis, Debye):
    X=             -0.6102    Y=              2.7364    Z=             10.9508  Tot=             11.3040
 Quadrupole moment (field-independent basis, Debye-Ang):
   XX=           -126.5069   YY=            -69.8093   ZZ=            576.9611
   XY=             27.5756   XZ=             80.6728   YZ=            170.4857
 Traceless Quadrupole moment (field-independent basis, Debye-Ang):
   XX=           -253.3885   YY=           -196.6909   ZZ=            450.0795
   XY=             27.5756   XZ=             80.6728   YZ=            170.4857
 Octapole moment (field-independent basis, Debye-Ang**2):
  XXX=          -3369.0100  YYY=          -2060.6566  ZZZ=          22235.4137  XYY=           -584.4699
  XXY=           -586.0552  XXZ=          -2957.9339  XZZ=           4643.3563  YZZ=           7166.5861
  YYZ=          -1439.0268  XYZ=           1628.2641
 Hexadecapole moment (field-independent basis, Debye-Ang**3):
[...]
 0013771,0.00025611,-0.00027935,-0.00002067,-0.00107835,-0.00011687,-0.
 00293981,0.00169733,-0.00496893,0.00295559,0.00000558,0.00007506,-0.00
 007028,0.00007119,0.00000311,0.00011162,-0.00006125,0.00004276,0.00003
 307,-0.00006689,0.00001636,-0.00029968,0.00006616,-0.00004513,0.000099
 15,0.00006373,-0.00015055,0.00018160,-0.00531058,-0.08033522,0.0948402
 0,-0.00111311,0.00747232,-0.01111202,0.00827444,0.07644915,0.00036719,
 -0.00036774,-0.00061650,-0.00119223,0.00047365,-0.00359373,-0.00002363
 ,-0.00017481,0.00075160,-0.00090237,-0.00693493,-0.00050840,-0.0000059
 2,0.00045677,0.00136883,0.00004240,0.00002060,-0.00004733,0.00003723,0
 .00000116,0.00007975,-0.00003146,0.00000164,-0.00000951,-0.00002601,-0
 .00006946,-0.00017324,0.00001379,0.00000373,0.00005149,0.00004229,-0.0
 0002330,0.00008776,-0.01375011,0.09714271,-0.31092677,0.00090089,0.005
 75894,-0.00821965,0.01430565,-0.10372473,0.32358410,0.00014089,0.00128
 029,0.00078956,-0.00166081,-0.00120944,0.00174843,0.00054545,0.0001140
 6,-0.00088868,0.00088215,0.00190283,-0.00129477,-0.01146097,0.00979225
 ,0.00563301,-0.00039991,0.00070210,-0.00042275,-0.00014316,-0.00002343
 ,0.00007146,-0.00016570,-0.00021874,0.00027818,-0.00038053,0.00035890,
 0.00028567,-0.00005720,0.00009032,-0.00012705,0.00017610,-0.00007669,-
 0.00008671,-0.30191461,-0.21995232,0.09479099,-0.01317589,-0.01504780,
 0.01129792,0.00450283,0.00081507,-0.00054212,0.59598430,0.00091280,-0.
 00023508,-0.00188297,0.00144751,0.00024975,-0.00234720,0.00038630,-0.0
 0066294,0.00027478,0.00053107,-0.00124258,0.00073440,-0.00337882,0.001
 76998,0.00366846,0.00225141,-0.00053845,0.00208720,0.00014710,0.000051
 40,-0.00015870,0.00043451,-0.00009511,-0.00106622,0.00006786,-0.001787
 51,0.00004575,0.00005729,0.00005711,0.00007830,0.00001360,-0.00013762,
 -0.00010514,-0.20631066,-0.23473984,0.10092326,-0.00836226,-0.00219222
 ,0.00630677,-0.00971041,-0.00073545,0.00247191,0.30244471,0.36607903,0
 .00012864,-0.00083840,0.00045403,0.00115682,-0.00194046,-0.00329813,-0
 .00019078,0.00021481,0.00041772,0.00118856,0.00036558,0.00022474,0.005
 65256,-0.00351591,-0.00762321,-0.00076524,-0.00012040,0.00072150,0.000
 22286,0.00001862,-0.00023758,-0.00008057,0.00064522,-0.00034318,-0.000
 44949,0.00079533,-0.00096231,0.00004406,0.00000735,-0.00005860,-0.0002
 4279,-0.00009803,0.00051081,0.09677094,0.10898464,-0.16663258,-0.01509
 840,-0.01272901,0.01146695,0.02414040,0.01916442,-0.00411615,0.0197594
 9,-0.13897643,0.64772606,-0.00007563,0.00021617,-0.00014342,0.00068196
 ,-0.00002873,-0.00023591,-0.00001925,-0.00003314,-0.00000226,-0.000512
 30,-0.00049082,0.00068403,-0.00097910,-0.00002427,0.00160099,-0.000209
 83,0.00011347,0.00015634,0.00008714,0.00000783,-0.00010390,0.00019683,
 0.00047027,-0.00021217,0.00005361,0.00008979,0.00015749,0.00001791,-0.
 00013670,-0.00004790,-0.00022101,-0.00021023,-0.00007996,0.00459226,-0
 .00768131,0.02392407,-0.00186233,0.00383237,0.00101651,0.00093706,-0.0
 0705013,-0.00148136,-0.05426164,-0.00812621,-0.00300113,0.04621617,0.0
 0001325,-0.00021333,0.00031449,0.00051132,-0.00021522,-0.00040915,-0.0
 0001325,0.00002417,-0.00006515,-0.00019368,-0.00026869,-0.00006671,0.0
 0067492,0.00019805,-0.00266308,0.00026913,-0.00015989,-0.00079391,-0.0
 0012146,-0.00009690,0.00018502,0.00043974,-0.00064710,0.00059061,-0.00
 006922,0.00037106,0.00030752,-0.00007761,-0.00007530,-0.00004489,-0.00
 011814,0.00005843,0.00000824,-0.00087821,-0.00244559,0.02206340,0.0044
 7761,-0.00442968,-0.00199789,-0.00784202,0.00554730,0.00318152,-0.0100
 2682,-0.05988742,0.07024572,0.01272261,0.05714417,-0.00000321,-0.00000
 797,0.00034963,0.00086508,-0.00058240,-0.00010120,-0.00006248,0.000117
 22,-0.00027869,-0.00016737,0.00032865,0.00057176,-0.00021436,0.0004033
 1,-0.00263689,-0.00065571,0.00030112,-0.00048256,-0.00013088,0.0000382
 1,0.00001190,-0.00017698,0.00005640,0.00054281,0.00010541,0.00038119,0
 .00010984,-0.00002752,0.00000755,-0.00001637,0.00012564,-0.00003164,0.
 00002014,-0.00182315,0.00198659,-0.00600592,0.00126802,-0.00130936,0.0
 0064346,0.00004941,0.00220212,0.00195164,-0.00017008,0.07500233,-0.322
 17701,-0.00206245,-0.08363663,0.33743758,0.00036327,-0.00008893,-0.000
 04134,0.00132559,-0.00035932,-0.00176301,-0.00023405,0.00019608,0.0001
 0774,0.00084205,-0.00072071,0.00184650,-0.00504885,0.00117133,-0.00064
 765,0.00004814,-0.00002376,0.00022244,-0.00001203,0.00003116,-0.000055
 27,-0.00005292,0.00008523,-0.00010265,-0.00005590,0.00002246,-0.000090
 01,-0.00000532,0.00002012,-0.00000521,0.00000390,-0.00003381,0.0000814
 0,-0.01169050,-0.00686803,-0.01406607,0.00245784,-0.00623344,0.0006217
 5,-0.00171632,0.00362298,0.00127116,-0.21764329,-0.07272505,-0.1282772
 0,0.00497467,0.00001031,0.00292879,0.22680728,-0.00014947,-0.00015202,
 -0.00001800,-0.00031025,-0.00078031,-0.00002998,0.00007239,0.00016439,
 0.00003721,-0.00022779,0.00121377,-0.00007578,0.00339050,-0.00052679,-
 0.00013536,-0.00013029,-0.00005467,-0.00032572,0.00009630,-0.00002849,
 0.00007447,0.00000009,0.00008623,0.00011000,0.00014072,-0.00004332,0.0
 0001403,0.00001183,-0.00004678,0.00000057,-0.00006310,-0.00002902,-0.0
 0000474,-0.01746528,-0.00261190,-0.01197534,-0.00782800,0.00569502,0.0
 0367969,0.00436608,-0.00443311,-0.00227745,-0.06956659,-0.06689884,-0.
 04149304,0.00595623,0.00492354,0.00506592,0.08159565,0.06437968,0.0001
 3065,-0.00025247,-0.00031786,-0.00111678,0.00051235,-0.00193375,0.0000
 4915,-0.00006082,0.00036466,0.00178058,-0.00021694,-0.00175828,0.00100
 453,-0.00042356,0.00108858,0.00005589,0.00013396,-0.00006582,-0.000077
 37,0.00001266,0.00003229,-0.00006101,-0.00023072,0.00003467,0.00001282
 ,-0.00008749,0.00001325,-0.00000876,0.00005928,0.00003515,0.00014427,0
 .00005304,-0.00001585,0.01082915,0.00478615,0.01213159,0.00022487,0.00
 430685,0.00050291,0.00124470,-0.00191357,0.00005483,-0.13178593,-0.046
 76392,-0.15550152,-0.02006892,-0.00742820,-0.00973080,0.13855550,0.047
 46912,0.15427040,0.00906414,-0.00289305,0.00509206,-0.00808066,0.00259
 420,0.00656819,-0.03998740,0.01140892,-0.00564168,0.00468891,-0.004158
 86,0.00062741,-0.00191938,0.00028634,-0.00313981,-0.00001695,-0.000046
 50,0.00002116,-0.00002814,0.00005678,-0.00002341,0.00004422,0.00001606
 ,0.00000438,-0.00001515,0.00009207,0.00008250,-0.00011632,-0.00003988,
 0.00007608,-0.00000191,-0.00000632,-0.00001239,0.00005713,0.00001951,-
 0.00004053,-0.00001066,-0.00000592,0.00009782,-0.00010627,-0.00009348,
 -0.00005009,-0.00008594,0.00004960,0.00002520,0.00003278,0.00003065,0.
 00005314,0.00012501,-0.00001190,-0.00007120,0.04016754,-0.00282745,0.0
 0484918,0.00981902,0.00346610,0.00258968,-0.00443797,0.01519248,-0.206
 14376,0.10015926,-0.00630178,-0.00078748,0.00173585,0.00232664,-0.0053
 3728,0.00250139,0.00026068,-0.00014884,0.00024089,0.00002906,0.0000960
 8,-0.00019819,0.00000634,0.00010159,0.00007546,-0.00003168,0.00006956,
 0.00007820,-0.00011925,-0.00018276,-0.00008609,-0.00005894,0.00005683,
 0.00009262,0.00019154,-0.00008348,0.00003341,-0.00005435,0.00001398,0.
 00000566,-0.00015072,0.00009963,0.00021528,-0.00009650,0.00009323,-0.0
 0001739,0.00001807,-0.00000758,-0.00008421,-0.00005425,-0.00002920,0.0
 0008283,-0.02114597,0.22145657,0.00717057,0.01389851,-0.02155486,0.005
 38993,-0.00239426,0.00405919,-0.00921053,0.10618702,-0.10237739,0.0023
 5584,0.00022444,-0.00812212,-0.00555066,0.00558051,0.00078786,-0.00006
 240,0.00022522,-0.00025272,-0.00006075,-0.00030390,0.00021721,-0.00001
 952,-0.00012687,-0.00013038,-0.00007949,-0.00003242,-0.00012686,0.0002
 4071,0.00012116,0.00019887,0.00008955,-0.00006192,-0.00004235,-0.00011
 269,0.00005806,0.00005754,0.00002964,0.00004137,0.00003734,-0.00001974
 ,0.00006355,-0.00017587,0.00018576,-0.00005177,-0.00002917,-0.00001829
 ,0.00001940,0.00006118,-0.00000973,-0.00002112,-0.00009667,0.00479136,
 -0.12416177,0.11373709,0.00085808,-0.00011797,-0.00165561,0.00683005,0
 .00165173,-0.00431749,0.00042545,-0.00344941,0.00388068,-0.07298119,0.
 02395202,0.09555243,-0.00088179,0.00067450,0.00050379,0.00004345,0.000
 00297,0.00002813,-0.00001495,-0.00003390,0.00005594,-0.00000162,-0.000
 00986,-0.00002625,-0.00005749,-0.00002393,0.00002036,0.00001922,0.0000
 0476,0.00003191,-0.00000235,-0.00001111,-0.00000895,0.00011252,-0.0000
 9072,0.00000052,0.00001646,0.00000336,0.00006921,-0.00019344,0.0001235
 2,-0.00005037,-0.00005706,-0.00007603,-0.00009577,0.00003598,0.0000169
 1,0.00004118,-0.00008627,0.00001774,-0.00020259,-0.00191981,0.00227609
 ,-0.00266272,0.07671051,-0.00009001,0.00045011,0.00094386,0.00162556,0
 .00549018,0.00841847,-0.00216110,0.00016650,-0.00260291,0.02414474,-0.
 04979599,-0.06304722,-0.00040586,-0.00014131,-0.00091814,0.00004487,-0
 .00001914,0.00004421,-0.00000965,0.00002130,-0.00004726,-0.00000808,-0
 .00000263,0.00000685,0.00000565,-0.00003127,0.00000497,-0.00002636,-0.
 00001524,-0.00003330,-0.00000058,0.00000876,0.00002576,0.00005136,-0.0
 0006791,0.00023915,-0.00001606,0.00005754,-0.00011942,0.00022289,-0.00
 013572,0.00077021,-0.00016332,0.00012346,-0.00003782,0.00004614,0.0000
 2845,-0.00005318,0.00006025,-0.00011013,0.00006964,0.00135514,0.000691
 62,0.00096677,-0.02814930,0.04729536,-0.00214160,0.00188728,0.00186737
 ,-0.00115467,0.00171477,-0.02161521,0.00160196,-0.00138994,-0.00446031
 ,0.09980556,-0.06557400,-0.27880102,0.00545505,-0.00270804,0.00425723,
 -0.00001465,0.00003097,-0.00000660,0.00001854,-0.00005473,-0.00004676,
 -0.00001340,-0.00000792,0.00006414,-0.00016971,-0.00001254,-0.00006194
 ,0.00005485,-0.00001976,-0.00004354,0.00001827,0.00001223,0.00005140,-
 0.00003822,-0.00011461,-0.00002562,-0.00003506,0.00007100,-0.00015153,
 0.00016983,0.00018532,0.00016607,0.00017568,-0.00013553,-0.00016898,-0
 .00008371,-0.00000960,-0.00010437,-0.00034129,0.00002943,0.00015475,-0
 .00057324,0.00017670,0.00197117,-0.11220968,0.07452189,0.30119657,0.00
 008526,0.00033559,-0.00009849,0.00809950,0.00617609,-0.00328486,-0.000
 10968,-0.00142952,0.00031787,-0.04484523,-0.03232089,-0.00299855,0.000
 09590,-0.00073822,0.00067168,0.00008090,0.00004617,0.00008829,0.000005
 91,-0.00000400,0.00000468,-0.00000898,-0.00000004,-0.00000294,-0.00007
 060,-0.00002059,0.00001244,0.00002209,-0.00003229,0.00001664,-0.000003
 10,-0.00000554,0.00003132,0.00055300,-0.00035203,-0.00000894,0.0000112
 3,0.00010386,-0.00012236,-0.00101195,0.00000912,0.00084338,-0.00038046
 ,0.00013225,-0.00051596,0.00019560,0.00013050,0.00001408,-0.00001175,0
 .00014109,-0.00027054,0.00001001,0.00083741,-0.00019479,0.00655921,0.0
 0468805,0.00332106,0.03362740,0.00151660,-0.00053934,0.00054563,0.0043
 9694,-0.01862192,0.01521011,-0.00286386,0.00124598,0.00039876,-0.03465
 594,-0.24993263,-0.01965484,-0.00395062,-0.00097295,-0.00675649,-0.000
 15597,-0.00001230,-0.00008848,-0.00001055,0.00006143,0.00002486,0.0000
 0262,-0.00006169,0.00002350,0.00013940,0.00021691,-0.00016168,-0.00005
 891,-0.00001352,0.00003378,0.00005229,-0.00001356,0.00008495,0.0001602
 5,-0.00006367,0.00058229,-0.00000013,0.00010003,-0.00029103,0.00082832
 ,-0.00102813,0.00241512,-0.00093046,0.00050528,-0.00047125,0.00030028,
 0.00009787,-0.00011077,0.00033989,-0.00028241,-0.00017723,0.00117146,-
 0.00003132,-0.00013360,-0.00040826,-0.01113970,-0.00714204,0.03619125,
 0.28531103,-0.00160194,0.00122996,0.00135448,-0.00286086,0.01649517,0.
 00055247,0.00087570,-0.00023690,-0.00324556,-0.00178204,-0.00966475,-0
 .04187330,0.00239111,-0.00134127,0.00172724,0.00000756,0.00005753,0.00
 003357,0.00000975,-0.00003191,-0.00001057,-0.00001809,-0.00004441,0.00
 007286,-0.00005516,-0.00005837,-0.00007133,0.00004052,-0.00000686,-0.0
 0000283,0.00004934,0.00001615,0.00009173,-0.00041068,-0.00055060,-0.00
 009013,0.00003903,0.00048941,-0.00094205,0.00050747,0.00007118,0.00068
 543,-0.00043836,0.00018081,-0.00049028,0.00022476,0.00012221,-0.000184
 50,-0.00010815,-0.00016602,0.00017025,-0.00002615,-0.00042700,0.001215
 28,0.00157205,-0.02034227,-0.00419601,0.00308016,0.01629534,0.03866791
 ,0.00886155,-0.00094881,0.00146511,0.00080282,0.00138650,0.00140832,-0
 .09615134,-0.08991581,-0.05041604,-0.00033099,-0.00210889,-0.00026971,
 -0.00176317,-0.00010515,-0.00145529,0.00008359,-0.00002923,0.00005300,
 -0.00015000,-0.00001741,-0.00004836,-0.00000199,-0.00001758,-0.0000571
 1,-0.00006040,0.00005432,0.00009608,-0.00007328,0.00005358,0.00005136,
 0.00002235,0.00000789,-0.00002378,0.00012341,-0.00004938,-0.00000400,0
 .00000750,0.00001139,0.00003724,-0.00004186,-0.00002553,-0.00002071,-0
 .00007567,-0.00006319,-0.00000634,0.00002415,-0.00000148,0.00001620,0.
 00002878,-0.00005748,-0.00003245,0.00405113,-0.00144682,-0.00148323,0.
 00019072,0.00057732,0.00005119,0.00016084,0.00043129,0.00003492,0.1036
 4109,-0.00225945,-0.00276013,-0.01011608,0.00189221,-0.00074068,0.0000
 8226,-0.09421729,-0.19022773,-0.08545280,-0.00279969,0.00098558,-0.001
 11415,-0.00299191,0.00168010,0.00171993,0.00011203,-0.00006483,-0.0000
 9601,-0.00008645,-0.00025133,0.00002505,0.00001300,-0.00004646,-0.0000
 3154,-0.00018470,0.00007530,-0.00020413,0.00020829,0.00001105,0.000160
 01,0.00009772,-0.00002016,-0.00000777,0.00004410,-0.00006753,0.0000338
 1,-0.00001028,0.00004759,0.00001504,-0.00004915,0.00006475,-0.00000872
 ,0.00002540,0.00002887,-0.00005649,-0.00002892,0.00003114,-0.00000559,
 -0.00004838,-0.00006683,-0.00001935,-0.00611472,-0.01044622,-0.0040041
 6,0.00067511,-0.00014554,0.00041485,0.00030105,-0.00037166,0.00017014,
 0.10727941,0.19872360,-0.00141008,-0.02048495,-0.01426511,0.00159724,-
 0.00100029,0.00356605,-0.05389348,-0.08665791,-0.08512588,-0.00011712,
 -0.00027963,-0.00387417,-0.00522195,0.00429718,-0.00032540,-0.00001673
 ,0.00008851,-0.00009575,-0.00002444,-0.00015453,0.00025840,0.00002444,
 -0.00008581,-0.00003462,-0.00015223,-0.00001510,-0.00022843,0.00028581
 ,0.00006393,0.00013380,0.00009204,-0.00005801,-0.00004481,-0.00000640,
 0.00006240,0.00000365,0.00000504,0.00004251,0.00004512,-0.00000016,-0.
 00000671,-0.00013759,0.00017989,-0.00005426,-0.00002721,-0.00002026,0.
 00003280,0.00005314,-0.00001077,-0.00003501,-0.00007653,0.00126414,0.0
 0638683,0.00493772,-0.00040623,0.00060462,0.00105247,0.00006596,-0.000
 09064,0.00064087,0.06074724,0.10059254,0.08698116,-0.01059686,0.008918
 05,0.00913197,-0.00136495,0.00117219,-0.00054469,-0.29870902,0.0710374
 2,0.01517814,0.00173760,-0.00190531,0.00128008,0.00266037,-0.00355122,
 -0.00175788,0.00008790,-0.00020867,0.00008529,-0.00011941,0.00015905,-
 0.00011646,0.00000420,0.00007257,-0.00002917,-0.00002000,0.00012123,0.
 00019163,-0.00030680,0.00003203,0.00003539,-0.00000046,0.00002504,-0.0
 0002539,-0.00002081,0.00000443,-0.00001051,-0.00003708,0.00000755,0.00
 002398,0.00000032,-0.00007296,0.00003100,-0.00013388,0.00008114,0.0000
 4045,-0.00001390,-0.00002205,-0.00000263,0.00006143,-0.00003372,0.0000
 2375,-0.00497808,0.00684510,-0.00079923,-0.00037305,0.00039376,-0.0004
 4162,-0.00009406,0.00064058,-0.00021612,-0.01935850,-0.00256296,-0.003
 19867,0.33210266,0.00707063,0.00535572,-0.00359852,0.00107032,-0.00002
 882,-0.00016422,0.07319490,-0.05796060,-0.00452441,-0.00184409,0.00029
 947,-0.00034910,-0.00129134,0.00092775,0.00115988,0.00004454,-0.000005
 23,-0.00006099,0.00004662,-0.00013335,-0.00004858,0.00001312,0.0000005
 7,0.00001141,-0.00012958,0.00007906,-0.00005823,0.00004381,-0.00008353
 ,0.00010898,0.00003590,-0.00000549,0.00003444,-0.00002922,-0.00004608,
 0.00004815,0.00000384,0.00000283,0.00001566,-0.00005012,0.00004341,0.0
 0001242,-0.00000124,0.00005589,-0.00000012,0.00000961,0.00000406,-0.00
 000598,-0.00003523,0.00001038,-0.00000109,0.01732299,-0.00724188,0.004
 02162,0.00055769,-0.00002508,0.00020641,0.00023513,-0.00017433,0.00004
 459,-0.01535735,0.00344325,-0.00332523,-0.08131819,0.05541281,0.019895
 43,-0.00936850,-0.00646628,0.00095647,-0.00083035,0.00284442,0.0201498
 7,-0.00575049,-0.03550184,0.00047379,0.00010500,-0.00263450,-0.0032707
 1,0.00384925,-0.00026238,0.00001204,0.00011033,-0.00006087,-0.00012604
 ,-0.00012632,0.00016707,0.00002714,-0.00005129,-0.00003037,-0.00015021
 ,0.00000574,0.00007514,0.00004616,0.00013829,0.00017434,0.00008596,-0.
 00003752,-0.00004159,-0.00000046,0.00001572,-0.00004094,0.00001644,0.0
 0002539,0.00002309,0.00000090,0.00001421,-0.00010519,0.00007769,-0.000
 20605,-0.00003309,-0.00001599,0.00002446,0.00004604,-0.00005350,0.0000
 5330,-0.00000890,-0.00888122,0.00791296,0.00445574,-0.00046126,0.00022
 673,0.00065911,-0.00003842,-0.00011624,0.00046162,-0.01022228,-0.00234
 297,0.00593697,-0.01863792,0.00636475,0.02993504,-0.00117210,0.0012707
 7,-0.00013110,-0.01736717,0.00252340,-0.01732047,0.00174055,-0.0026384
 3,-0.00043435,-0.27760779,-0.05178069,-0.01287350,0.00215373,-0.001488
 88,0.00558726,0.00007427,0.00004827,0.00001137,-0.00000441,-0.00007459
 ,0.00001938,-0.00004826,0.00000058,-0.00003348,-0.00006744,-0.00000530
 ,-0.00005248,0.00004916,-0.00001365,-0.00005086,-0.00001925,-0.0000092
 8,0.00002852,0.00026898,-0.00026418,0.00026276,0.00002442,0.00013471,-
 0.00007752,-0.00014755,0.00011651,0.00022137,-0.00023537,-0.00020518,-
 0.00040605,0.00010885,0.00006701,0.00002993,-0.00048089,0.00005530,-0.
 00036036,-0.00097416,0.00083821,0.00003041,-0.01523262,-0.00218541,0.0
 0654488,-0.00297103,-0.00313645,-0.00131483,0.00000926,0.00070556,0.00
 021666,-0.00052777,0.00040731,0.00011613,0.31242650,0.00022985,0.00019
 362,-0.00000707,0.00831333,0.00690698,0.00675411,-0.00087930,-0.000514
 43,-0.00008688,-0.05114825,-0.04819351,-0.00469681,-0.00085739,0.00010
 479,-0.00103392,0.00000405,-0.00002094,0.00003604,-0.00003626,0.000007
 80,0.00000139,-0.00000933,-0.00002522,-0.00000559,0.00000133,-0.000014
 63,-0.00003704,-0.00001666,0.00001651,-0.00001602,0.00001307,0.0000040
 0,0.00002593,0.00010463,-0.00004974,0.00020637,0.00000032,0.00005560,-
 0.00013742,0.00018519,-0.00007645,0.00065549,-0.00021215,0.00013963,-0
 .00014711,0.00002764,0.00001842,-0.00006295,0.00003555,-0.00037925,0.0
 0008951,0.00011287,0.00032185,-0.00011583,0.00241408,0.00729635,-0.002
 08215,-0.01442446,-0.00427940,-0.00230211,0.00034238,0.00011788,0.0000
 7678,0.00016502,0.00006917,-0.00001641,0.05563444,0.03830101,-0.001463
 36,0.00124612,0.00097561,-0.02085709,0.00329830,-0.00558716,0.00091136
 ,-0.00075062,-0.00291004,-0.02002458,-0.00605084,-0.03957259,0.0022071
 2,-0.00095907,0.00340993,0.00008293,0.00000993,-0.00002688,0.00002271,
 -0.00004522,0.00000234,-0.00001518,0.00000099,0.00003364,-0.00003444,-
 0.00002232,-0.00003317,0.00004985,-0.00001902,0.00001175,0.00001735,0.
 00000475,0.00004064,-0.00008504,-0.00000675,-0.00008923,-0.00005666,-0
 .00001418,-0.00004583,0.00002276,0.00019892,-0.00015156,0.00048323,-0.
 00002509,0.00017704,-0.00018657,0.00001977,-0.00008097,-0.00006332,0.0
 0002379,0.00065267,-0.00024370,-0.00010373,0.00117217,0.02034072,0.000
 35838,-0.00175839,-0.00093172,-0.00042005,0.00543283,0.00007865,0.0002
 4612,0.00062610,-0.00024138,0.00010816,0.00040736,0.01998632,0.0029016
 7,0.03731372\\-0.00000010,0.00000535,0.00001070,0.00000393,0.00000310,
 -0.00000973,-0.00000125,0.00000187,-0.00000375,-0.00000256,-0.00000374
 ,0.00000005,-0.00000843,-0.00000281,-0.00000129,0.00000199,0.00000606,
 -0.00000014,-0.00000012,-0.00000053,-0.00000120,0.00000151,-0.00000230
 ,0.00000130,0.00000810,-0.00001239,0.00000385,0.00000634,-0.00000771,0
 .00000379,-0.00000066,-0.00000028,-0.00000481,-0.00000663,0.00000930,-
 0.00000835,-0.00000627,-0.00000399,-0.00000005,-0.00000209,-0.00000016
 ,0.00000251,0.00000054,0.00000567,0.00000039,0.00000228,0.00000036,-0.
 00000302,-0.00000026,0.00000186,0.00000338,-0.00168387,0.01580910,0.00
 073016,-0.00052087,-0.00042347,0.00044545,0.00938763,0.01362032,0.0000
 0888,-0.00238584,-0.01480069,0.00010976,0.00234718,-0.00271988,-0.0001
 6800,-0.00714051,-0.01148501,-0.00111987\\\@


 IN-LAWS ARE LIKE SEEDS. YOU DON'T NEED THEM
 BUT THEY COME WITH THE TOMATO.
 Job cpu time:       0 days  2 hours 18 minutes 29.6 seconds.
 File lengths (MBytes):  RWF=    527 Int=      0 D2E=      0 Chk=      8 Scr=      1
 Normal termination of Gaussian 09 at Fri May  5 17:14:33 2017.
8283.028u 26.684s 52:21.30 264.5%	0+0k 0+2181840io 0pf+0w
