 Entering Gaussian System, Link 0=/sw/chem/g09/g09
 Initial command:
 /sw/chem/g09/l1.exe "/scratch_local/craigv/IIIminus1/Gau-25031.inp" -scrdir="/scratch_local/craigv/IIIminus1/"
 Entering Link 1 = /sw/chem/g09/l1.exe PID=     25032.
  
 Copyright (c) 1988,1990,1992,1993,1995,1998,2003,2009,2013,
            Gaussian, Inc.  All Rights Reserved.
  
 This is part of the Gaussian(R) 09 program.  It is based on
 the Gaussian(R) 03 system (copyright 2003, Gaussian, Inc.),
 the Gaussian(R) 98 system (copyright 1998, Gaussian, Inc.),
 the Gaussian(R) 94 system (copyright 1995, Gaussian, Inc.),
 the Gaussian 92(TM) system (copyright 1992, Gaussian, Inc.),
 the Gaussian 90(TM) system (copyright 1990, Gaussian, Inc.),
 the Gaussian 88(TM) system (copyright 1988, Gaussian, Inc.),
 the Gaussian 86(TM) system (copyright 1986, Carnegie Mellon
 University), and the Gaussian 82(TM) system (copyright 1983,
 Carnegie Mellon University). Gaussian is a federally registered
 trademark of Gaussian, Inc.
  
 This software contains proprietary and confidential information,
 including trade secrets, belonging to Gaussian, Inc.
  
 This software is provided under written license and may be
 used, copied, transmitted, or stored only in accord with that
 written license.
  
 The following legend is applicable only to US Government
 contracts under FAR:
  
                    RESTRICTED RIGHTS LEGEND
  
 Use, reproduction and disclosure by the US Government is
 subject to restrictions as set forth in subparagraphs (a)
 and (c) of the Commercial Computer Software - Restricted
 Rights clause in FAR 52.227-19.
  
 Gaussian, Inc.
 340 Quinnipiac St., Bldg. 40, Wallingford CT 06492
  
  
 ---------------------------------------------------------------
 Warning -- This program may not be used in any manner that
 competes with the business of Gaussian, Inc. or will provide
 assistance to any competitor of Gaussian, Inc.  The licensee
 of this program is prohibited from giving any competitor of
 Gaussian, Inc. access to this program.  By using this program,
 the user acknowledges that Gaussian, Inc. is engaged in the
 business of creating and licensing software in the field of
 computational chemistry and represents and warrants to the
 licensee that it is not a competitor of Gaussian, Inc. and that
 it will not use this program in any manner prohibited above.
 ---------------------------------------------------------------
  

 Cite this work as:
 Gaussian 09, Revision D.01,
 M. J. Frisch, G. W. Trucks, H. B. Schlegel, G. E. Scuseria, 
 M. A. Robb, J. R. Cheeseman, G. Scalmani, V. Barone, B. Mennucci, 
 G. A. Petersson, H. Nakatsuji, M. Caricato, X. Li, H. P. Hratchian, 
 A. F. Izmaylov, J. Bloino, G. Zheng, J. L. Sonnenberg, M. Hada, 
 M. Ehara, K. Toyota, R. Fukuda, J. Hasegawa, M. Ishida, T. Nakajima, 
 Y. Honda, O. Kitao, H. Nakai, T. Vreven, J. A. Montgomery, Jr., 
 J. E. Peralta, F. Ogliaro, M. Bearpark, J. J. Heyd, E. Brothers, 
 K. N. Kudin, V. N. Staroverov, T. Keith, R. Kobayashi, J. Normand, 
 K. Raghavachari, A. Rendell, J. C. Burant, S. S. Iyengar, J. Tomasi, 
 M. Cossi, N. Rega, J. M. Millam, M. Klene, J. E. Knox, J. B. Cross, 
 V. Bakken, C. Adamo, J. Jaramillo, R. Gomperts, R. E. Stratmann, 
 O. Yazyev, A. J. Austin, R. Cammi, C. Pomelli, J. W. Ochterski, 
 R. L. Martin, K. Morokuma, V. G. Zakrzewski, G. A. Voth, 
 P. Salvador, J. J. Dannenberg, S. Dapprich, A. D. Daniels, 
 O. Farkas, J. B. Foresman, J. V. Ortiz, J. Cioslowski, 
 and D. J. Fox, Gaussian, Inc., Wallingford CT, 2013.
 
 ******************************************
 Gaussian 09:  ES64L-G09RevD.01 24-Apr-2013
                16-Jul-2017 
 ******************************************
 %nprocshared=12
 Will use up to   12 processors via shared memory.
 %chk=/home/craigv/homolysis/Monoi/III/IIIminus1opt.chk
 ---------------------------------------------------------
 #p opt=modredundant wb97xd/gen nosymm scf(maxcycles=1000)
 ---------------------------------------------------------
 1/14=-1,18=120,19=15,26=3,38=1/1,3;
 2/9=110,12=2,15=1,17=6,18=5,40=1/2;
 3/5=7,11=2,16=1,25=1,30=1,71=1,74=-58/1,2,3;
 4//1;
 5/5=2,7=1000,38=5/2;
 6/7=2,8=2,9=2,10=2,28=1/1;
 7/30=1/1,2,3,16;
 1/14=-1,18=20,19=15,26=3/3(2);
 2/9=110,15=1/2;
 99//99;
 2/9=110,15=1/2;
 3/5=7,6=1,11=2,16=1,25=1,30=1,71=1,74=-58,82=7/1,2,3;
 4/5=5,16=3,69=1/1;
 5/5=2,7=1000,38=5/2;
 7/30=1/1,2,3,16;
 1/14=-1,18=20,19=15,26=3/3(-5);
 2/9=110,15=1/2;
 6/7=2,8=2,9=2,10=2,19=2,28=1/1;
 99/9=1/99;
 Leave Link    1 at Sun Jul 16 12:22:36 2017, MaxMem=           0 cpu:         0.6
 (Enter /sw/chem/g09/l101.exe)
 -------------------
 Title Card Required
 -------------------
 Symbolic Z-matrix:
 Charge =  0 Multiplicity = 2
 H                    -2.44193   3.44901   3.27199 
 H                     2.90705   1.47835   6.30541 
 H                     1.32057   1.93849   6.94915 
 H                     2.60732   3.14722   6.79907 
 H                     3.84996   2.5844    3.60056 
 H                     3.44069   4.25779   3.94413 
 H                     2.7642    3.46045   2.51788 
 H                     1.72507   0.3461    3.70374 
 H                     0.57902   1.30961   2.74425 
 H                     0.09242   0.67836   4.30622 
 H                    -0.93396   7.41187   6.35789 
 H                    -1.16992   5.80672   7.0608 
 H                    -1.9581    6.23067   5.53526 
 H                     1.60582   6.68253   3.13723 
 H                    -0.08232   7.34284   3.21587 
 H                     2.1791    7.06817   6.35541 
 H                     2.92957   5.60923   5.7055 
 H                     1.93472   5.50914   7.18328 
 C                     0.17107   3.93692   4.5912 
 H                    -0.72904   3.47567   5.01791 
 Si                    1.57415   2.69559   4.5709 
 Si                    0.46647   5.72094   5.16908 
 C                     2.1542    2.27059   6.32068 
 C                     3.03796   3.31749   3.56004 
 C                     0.94209   1.10779   3.76596 
 C                    -1.04433   6.35447   6.12117 
 C                     0.5662    6.48292   3.43052 
 C                     2.02461   6.00346   6.19517 
 Cr                   -0.08875   4.71099   2.76221 
 O                     0.5354    4.10976   1.15105 
 O                    -2.01249   3.5536    2.42146 
 O                    -1.11793   2.23167   0.30132 
 Si                   -2.33264   2.26736   1.36959 
 Si                    0.35878   2.9956    0.0163 
 O                     1.52866   1.82419  -0.01749 
 O                     0.3296    3.6773   -1.48163 
 O                    -3.79819   2.42209   0.6238 
 O                    -2.43818   0.96278   2.36828 
 H                     1.47202   1.11301   0.62641 
 H                     0.72101   3.16321  -2.19328 
 H                    -3.8138    2.94951  -0.1795 
 H                    -3.05842   0.28782   2.07922 
 
 The following ModRedundant input section has been read:
 X      35 F                                                                   
 X      36 F                                                                   
 X      37 F                                                                   
 X      38 F                                                                   
 X      39 F                                                                   
 X      40 F                                                                   
 X      41 F                                                                   
 X      42 F                                                                   
 
 NAtoms=     42 NQM=       42 NQMF=       0 NMMI=      0 NMMIF=      0
                NMic=       0 NMicF=      0.
                    Isotopes and Nuclear Properties:
 (Nuclear quadrupole moments (NQMom) in fm**2, nuclear magnetic moments (NMagM)
  in nuclear magnetons)

  Atom         1           2           3           4           5           6           7           8           9          10
 IAtWgt=           1           1           1           1           1           1           1           1           1           1
 AtmWgt=   1.0078250   1.0078250   1.0078250   1.0078250   1.0078250   1.0078250   1.0078250   1.0078250   1.0078250   1.0078250
 NucSpn=           1           1           1           1           1           1           1           1           1           1
 AtZEff=   0.0000000   0.0000000   0.0000000   0.0000000   0.0000000   0.0000000   0.0000000   0.0000000   0.0000000   0.0000000
 NQMom=    0.0000000   0.0000000   0.0000000   0.0000000   0.0000000   0.0000000   0.0000000   0.0000000   0.0000000   0.0000000
 NMagM=    2.7928460   2.7928460   2.7928460   2.7928460   2.7928460   2.7928460   2.7928460   2.7928460   2.7928460   2.7928460
 AtZNuc=   1.0000000   1.0000000   1.0000000   1.0000000   1.0000000   1.0000000   1.0000000   1.0000000   1.0000000   1.0000000

  Atom        11          12          13          14          15          16          17          18          19          20
 IAtWgt=           1           1           1           1           1           1           1           1          12           1
 AtmWgt=   1.0078250   1.0078250   1.0078250   1.0078250   1.0078250   1.0078250   1.0078250   1.0078250  12.0000000   1.0078250
 NucSpn=           1           1           1           1           1           1           1           1           0           1
 AtZEff=   0.0000000   0.0000000   0.0000000   0.0000000   0.0000000   0.0000000   0.0000000   0.0000000   0.0000000   0.0000000
 NQMom=    0.0000000   0.0000000   0.0000000   0.0000000   0.0000000   0.0000000   0.0000000   0.0000000   0.0000000   0.0000000
 NMagM=    2.7928460   2.7928460   2.7928460   2.7928460   2.7928460   2.7928460   2.7928460   2.7928460   0.0000000   2.7928460
 AtZNuc=   1.0000000   1.0000000   1.0000000   1.0000000   1.0000000   1.0000000   1.0000000   1.0000000   6.0000000   1.0000000

  Atom        21          22          23          24          25          26          27          28          29          30
 IAtWgt=          28          28          12          12          12          12          12          12          52          16
 AtmWgt=  27.9769284  27.9769284  12.0000000  12.0000000  12.0000000  12.0000000  12.0000000  12.0000000  51.9405097  15.9949146
 NucSpn=           0           0           0           0           0           0           0           0           0           0
 AtZEff=   0.0000000   0.0000000   0.0000000   0.0000000   0.0000000   0.0000000   0.0000000   0.0000000   0.0000000   0.0000000
 NQMom=    0.0000000   0.0000000   0.0000000   0.0000000   0.0000000   0.0000000   0.0000000   0.0000000   0.0000000   0.0000000
 NMagM=    0.0000000   0.0000000   0.0000000   0.0000000   0.0000000   0.0000000   0.0000000   0.0000000   0.0000000   0.0000000
 AtZNuc=  14.0000000  14.0000000   6.0000000   6.0000000   6.0000000   6.0000000   6.0000000   6.0000000  24.0000000   8.0000000

  Atom        31          32          33          34          35          36          37          38          39          40
 IAtWgt=          16          16          28          28          16          16          16          16           1           1
 AtmWgt=  15.9949146  15.9949146  27.9769284  27.9769284  15.9949146  15.9949146  15.9949146  15.9949146   1.0078250   1.0078250
 NucSpn=           0           0           0           0           0           0           0           0           1           1
 AtZEff=   0.0000000   0.0000000   0.0000000   0.0000000   0.0000000   0.0000000   0.0000000   0.0000000   0.0000000   0.0000000
 NQMom=    0.0000000   0.0000000   0.0000000   0.0000000   0.0000000   0.0000000   0.0000000   0.0000000   0.0000000   0.0000000
 NMagM=    0.0000000   0.0000000   0.0000000   0.0000000   0.0000000   0.0000000   0.0000000   0.0000000   2.7928460   2.7928460
 AtZNuc=   8.0000000   8.0000000  14.0000000  14.0000000   8.0000000   8.0000000   8.0000000   8.0000000   1.0000000   1.0000000

  Atom        41          42
 IAtWgt=           1           1
 AtmWgt=   1.0078250   1.0078250
 NucSpn=           1           1
 AtZEff=   0.0000000   0.0000000
 NQMom=    0.0000000   0.0000000
 NMagM=    2.7928460   2.7928460
 AtZNuc=   1.0000000   1.0000000
 Leave Link  101 at Sun Jul 16 12:22:37 2017, MaxMem=    33554432 cpu:         0.3
 (Enter /sw/chem/g09/l103.exe)

 GradGradGradGradGradGradGradGradGradGradGradGradGradGradGradGradGradGrad
 Berny optimization.
 Initialization pass.
                           ----------------------------
                           !    Initial Parameters    !
                           ! (Angstroms and Degrees)  !
 --------------------------                            --------------------------
 ! Name  Definition              Value          Derivative Info.                !
 --------------------------------------------------------------------------------
 ! X35   R(35,-1)                1.5287         Frozen                          !
 ! Y35   R(35,-2)                1.8242         Frozen                          !
 ! Z35   R(35,-3)               -0.0175         Frozen                          !
 ! X36   R(36,-1)                0.3296         Frozen                          !
 ! Y36   R(36,-2)                3.6773         Frozen                          !
 ! Z36   R(36,-3)               -1.4816         Frozen                          !
 ! X37   R(37,-1)               -3.7982         Frozen                          !
 ! Y37   R(37,-2)                2.4221         Frozen                          !
 ! Z37   R(37,-3)                0.6238         Frozen                          !
 ! X38   R(38,-1)               -2.4382         Frozen                          !
 ! Y38   R(38,-2)                0.9628         Frozen                          !
 ! Z38   R(38,-3)                2.3683         Frozen                          !
 ! X39   R(39,-1)                1.472          Frozen                          !
 ! Y39   R(39,-2)                1.113          Frozen                          !
 ! Z39   R(39,-3)                0.6264         Frozen                          !
 ! X40   R(40,-1)                0.721          Frozen                          !
 ! Y40   R(40,-2)                3.1632         Frozen                          !
 ! Z40   R(40,-3)               -2.1933         Frozen                          !
 ! X41   R(41,-1)               -3.8138         Frozen                          !
 ! Y41   R(41,-2)                2.9495         Frozen                          !
 ! Z41   R(41,-3)               -0.1795         Frozen                          !
 ! X42   R(42,-1)               -3.0584         Frozen                          !
 ! Y42   R(42,-2)                0.2878         Frozen                          !
 ! Z42   R(42,-3)                2.0792         Frozen                          !
 ! R1    R(1,31)                 0.9585         estimate D2E/DX2                !
 ! R2    R(2,23)                 1.093          estimate D2E/DX2                !
 ! R3    R(3,23)                 1.0955         estimate D2E/DX2                !
 ! R4    R(4,23)                 1.0967         estimate D2E/DX2                !
 ! R5    R(5,24)                 1.0947         estimate D2E/DX2                !
 ! R6    R(6,24)                 1.0926         estimate D2E/DX2                !
 ! R7    R(7,24)                 1.087          estimate D2E/DX2                !
 ! R8    R(8,25)                 1.0941         estimate D2E/DX2                !
 ! R9    R(9,25)                 1.1029         estimate D2E/DX2                !
 ! R10   R(10,25)                1.0946         estimate D2E/DX2                !
 ! R11   R(11,26)                1.0892         estimate D2E/DX2                !
 ! R12   R(12,26)                1.0949         estimate D2E/DX2                !
 ! R13   R(13,26)                1.0925         estimate D2E/DX2                !
 ! R14   R(14,27)                1.0985         estimate D2E/DX2                !
 ! R15   R(15,27)                1.0982         estimate D2E/DX2                !
 ! R16   R(16,28)                1.0877         estimate D2E/DX2                !
 ! R17   R(17,28)                1.1019         estimate D2E/DX2                !
 ! R18   R(18,28)                1.1085         estimate D2E/DX2                !
 ! R19   R(19,20)                1.0977         estimate D2E/DX2                !
 ! R20   R(19,21)                1.8735         estimate D2E/DX2                !
 ! R21   R(19,22)                1.8984         estimate D2E/DX2                !
 ! R22   R(19,29)                2.003          estimate D2E/DX2                !
 ! R23   R(21,23)                1.8918         estimate D2E/DX2                !
 ! R24   R(21,24)                1.8845         estimate D2E/DX2                !
 ! R25   R(21,25)                1.8891         estimate D2E/DX2                !
 ! R26   R(22,26)                1.8948         estimate D2E/DX2                !
 ! R27   R(22,27)                1.9008         estimate D2E/DX2                !
 ! R28   R(22,28)                1.8869         estimate D2E/DX2                !
 ! R29   R(22,29)                2.6686         estimate D2E/DX2                !
 ! R30   R(27,29)                2.0038         estimate D2E/DX2                !
 ! R31   R(29,30)                1.8294         estimate D2E/DX2                !
 ! R32   R(30,34)                1.6001         estimate D2E/DX2                !
 ! R33   R(31,33)                1.6921         estimate D2E/DX2                !
 ! R34   R(32,33)                1.618          estimate D2E/DX2                !
 ! R35   R(32,34)                1.6869         estimate D2E/DX2                !
 ! R36   R(33,37)                1.6517         estimate D2E/DX2                !
 ! R37   R(33,38)                1.6463         estimate D2E/DX2                !
 ! R38   R(34,35)                1.6559         estimate D2E/DX2                !
 ! R39   R(34,36)                1.646          estimate D2E/DX2                !
 ! R40   R(35,39)                0.961          estimate D2E/DX2                !
 ! R41   R(36,40)                0.9612         estimate D2E/DX2                !
 ! R42   R(37,41)                0.9611         estimate D2E/DX2                !
 ! R43   R(38,42)                0.9612         estimate D2E/DX2                !
 ! A1    A(20,19,21)           109.87           estimate D2E/DX2                !
 ! A2    A(20,19,22)           113.837          estimate D2E/DX2                !
 ! A3    A(20,19,29)           114.2661         estimate D2E/DX2                !
 ! A4    A(21,19,22)           120.6251         estimate D2E/DX2                !
 ! A5    A(21,19,29)           110.0789         estimate D2E/DX2                !
 ! A6    A(19,21,23)           111.6205         estimate D2E/DX2                !
 ! A7    A(19,21,24)           111.6466         estimate D2E/DX2                !
 ! A8    A(19,21,25)           108.1161         estimate D2E/DX2                !
 ! A9    A(23,21,24)           109.3975         estimate D2E/DX2                !
 ! A10   A(23,21,25)           107.9322         estimate D2E/DX2                !
 ! A11   A(24,21,25)           107.9817         estimate D2E/DX2                !
 ! A12   A(19,22,26)           110.0652         estimate D2E/DX2                !
 ! A13   A(19,22,27)            96.1115         estimate D2E/DX2                !
 ! A14   A(19,22,28)           115.7679         estimate D2E/DX2                !
 ! A15   A(26,22,27)           111.554          estimate D2E/DX2                !
 ! A16   A(26,22,28)           109.5788         estimate D2E/DX2                !
 ! A17   A(26,22,29)           114.4463         estimate D2E/DX2                !
 ! A18   A(27,22,28)           113.2049         estimate D2E/DX2                !
 ! A19   A(28,22,29)           135.9663         estimate D2E/DX2                !
 ! A20   A(2,23,3)             108.2046         estimate D2E/DX2                !
 ! A21   A(2,23,4)             107.5112         estimate D2E/DX2                !
 ! A22   A(2,23,21)            111.168          estimate D2E/DX2                !
 ! A23   A(3,23,4)             107.8469         estimate D2E/DX2                !
 ! A24   A(3,23,21)            111.4322         estimate D2E/DX2                !
 ! A25   A(4,23,21)            110.5238         estimate D2E/DX2                !
 ! A26   A(5,24,6)             106.8509         estimate D2E/DX2                !
 ! A27   A(5,24,7)             108.0818         estimate D2E/DX2                !
 ! A28   A(5,24,21)            109.5912         estimate D2E/DX2                !
 ! A29   A(6,24,7)             108.4623         estimate D2E/DX2                !
 ! A30   A(6,24,21)            112.4417         estimate D2E/DX2                !
 ! A31   A(7,24,21)            111.2276         estimate D2E/DX2                !
 ! A32   A(8,25,9)             108.0765         estimate D2E/DX2                !
 ! A33   A(8,25,10)            108.0853         estimate D2E/DX2                !
 ! A34   A(8,25,21)            111.7113         estimate D2E/DX2                !
 ! A35   A(9,25,10)            105.871          estimate D2E/DX2                !
 ! A36   A(9,25,21)            110.553          estimate D2E/DX2                !
 ! A37   A(10,25,21)           112.2811         estimate D2E/DX2                !
 ! A38   A(11,26,12)           108.1077         estimate D2E/DX2                !
 ! A39   A(11,26,13)           108.1393         estimate D2E/DX2                !
 ! A40   A(11,26,22)           110.671          estimate D2E/DX2                !
 ! A41   A(12,26,13)           107.9157         estimate D2E/DX2                !
 ! A42   A(12,26,22)           110.819          estimate D2E/DX2                !
 ! A43   A(13,26,22)           111.0707         estimate D2E/DX2                !
 ! A44   A(14,27,15)           111.3706         estimate D2E/DX2                !
 ! A45   A(14,27,22)           111.5123         estimate D2E/DX2                !
 ! A46   A(14,27,29)           112.3942         estimate D2E/DX2                !
 ! A47   A(15,27,22)           117.4944         estimate D2E/DX2                !
 ! A48   A(15,27,29)           115.7341         estimate D2E/DX2                !
 ! A49   A(16,28,17)           107.3991         estimate D2E/DX2                !
 ! A50   A(16,28,18)           108.4631         estimate D2E/DX2                !
 ! A51   A(16,28,22)           110.1174         estimate D2E/DX2                !
 ! A52   A(17,28,18)           107.6488         estimate D2E/DX2                !
 ! A53   A(17,28,22)           112.5171         estimate D2E/DX2                !
 ! A54   A(18,28,22)           110.5486         estimate D2E/DX2                !
 ! A55   A(19,29,27)            89.7018         estimate D2E/DX2                !
 ! A56   A(19,29,30)           129.2661         estimate D2E/DX2                !
 ! A57   A(22,29,30)           147.9632         estimate D2E/DX2                !
 ! A58   A(27,29,30)           118.2171         estimate D2E/DX2                !
 ! A59   A(29,30,34)           144.6615         estimate D2E/DX2                !
 ! A60   A(1,31,33)            112.5748         estimate D2E/DX2                !
 ! A61   A(33,32,34)           139.3565         estimate D2E/DX2                !
 ! A62   A(31,33,32)           106.5675         estimate D2E/DX2                !
 ! A63   A(31,33,37)           112.1701         estimate D2E/DX2                !
 ! A64   A(31,33,38)           103.7317         estimate D2E/DX2                !
 ! A65   A(32,33,37)           111.721          estimate D2E/DX2                !
 ! A66   A(32,33,38)           115.5404         estimate D2E/DX2                !
 ! A67   A(37,33,38)           106.9338         estimate D2E/DX2                !
 ! A68   A(30,34,32)           106.9866         estimate D2E/DX2                !
 ! A69   A(30,34,35)           115.4091         estimate D2E/DX2                !
 ! A70   A(30,34,36)           111.0363         estimate D2E/DX2                !
 ! A71   A(32,34,35)           107.5513         estimate D2E/DX2                !
 ! A72   A(32,34,36)           109.0143         estimate D2E/DX2                !
 ! A73   A(35,34,36)           106.6745         estimate D2E/DX2                !
 ! A74   A(34,35,39)           117.9169         estimate D2E/DX2                !
 ! A75   A(34,36,40)           116.4258         estimate D2E/DX2                !
 ! A76   A(33,37,41)           116.31           estimate D2E/DX2                !
 ! A77   A(33,38,42)           114.5434         estimate D2E/DX2                !
 ! D1    D(20,19,21,23)        -67.983          estimate D2E/DX2                !
 ! D2    D(20,19,21,24)        169.2204         estimate D2E/DX2                !
 ! D3    D(20,19,21,25)         50.5806         estimate D2E/DX2                !
 ! D4    D(22,19,21,23)         67.5226         estimate D2E/DX2                !
 ! D5    D(22,19,21,24)        -55.274          estimate D2E/DX2                !
 ! D6    D(22,19,21,25)       -173.9138         estimate D2E/DX2                !
 ! D7    D(29,19,21,23)        165.335          estimate D2E/DX2                !
 ! D8    D(29,19,21,24)         42.5384         estimate D2E/DX2                !
 ! D9    D(29,19,21,25)        -76.1014         estimate D2E/DX2                !
 ! D10   D(20,19,22,26)         -9.5532         estimate D2E/DX2                !
 ! D11   D(20,19,22,27)       -125.1772         estimate D2E/DX2                !
 ! D12   D(20,19,22,28)        115.3695         estimate D2E/DX2                !
 ! D13   D(21,19,22,26)       -143.4506         estimate D2E/DX2                !
 ! D14   D(21,19,22,27)        100.9255         estimate D2E/DX2                !
 ! D15   D(21,19,22,28)        -18.5279         estimate D2E/DX2                !
 ! D16   D(20,19,29,27)        124.1733         estimate D2E/DX2                !
 ! D17   D(20,19,29,30)       -108.4931         estimate D2E/DX2                !
 ! D18   D(21,19,29,27)       -111.6506         estimate D2E/DX2                !
 ! D19   D(21,19,29,30)         15.683          estimate D2E/DX2                !
 ! D20   D(19,21,23,2)         174.6912         estimate D2E/DX2                !
 ! D21   D(19,21,23,3)          53.9            estimate D2E/DX2                !
 ! D22   D(19,21,23,4)         -66.0014         estimate D2E/DX2                !
 ! D23   D(24,21,23,2)         -61.237          estimate D2E/DX2                !
 ! D24   D(24,21,23,3)         177.9718         estimate D2E/DX2                !
 ! D25   D(24,21,23,4)          58.0704         estimate D2E/DX2                !
 ! D26   D(25,21,23,2)          56.0178         estimate D2E/DX2                !
 ! D27   D(25,21,23,3)         -64.7733         estimate D2E/DX2                !
 ! D28   D(25,21,23,4)         175.3253         estimate D2E/DX2                !
 ! D29   D(19,21,24,5)         177.9651         estimate D2E/DX2                !
 ! D30   D(19,21,24,6)          59.286          estimate D2E/DX2                !
 ! D31   D(19,21,24,7)         -62.5842         estimate D2E/DX2                !
 ! D32   D(23,21,24,5)          53.9086         estimate D2E/DX2                !
 ! D33   D(23,21,24,6)         -64.7705         estimate D2E/DX2                !
 ! D34   D(23,21,24,7)         173.3592         estimate D2E/DX2                !
 ! D35   D(25,21,24,5)         -63.315          estimate D2E/DX2                !
 ! D36   D(25,21,24,6)         178.0058         estimate D2E/DX2                !
 ! D37   D(25,21,24,7)          56.1356         estimate D2E/DX2                !
 ! D38   D(19,21,25,8)         178.7512         estimate D2E/DX2                !
 ! D39   D(19,21,25,9)          58.3552         estimate D2E/DX2                !
 ! D40   D(19,21,25,10)        -59.631          estimate D2E/DX2                !
 ! D41   D(23,21,25,8)         -60.362          estimate D2E/DX2                !
 ! D42   D(23,21,25,9)         179.242          estimate D2E/DX2                !
 ! D43   D(23,21,25,10)         61.2557         estimate D2E/DX2                !
 ! D44   D(24,21,25,8)          57.8047         estimate D2E/DX2                !
 ! D45   D(24,21,25,9)         -62.5913         estimate D2E/DX2                !
 ! D46   D(24,21,25,10)        179.4224         estimate D2E/DX2                !
 ! D47   D(19,22,26,11)       -173.4767         estimate D2E/DX2                !
 ! D48   D(19,22,26,12)         66.599          estimate D2E/DX2                !
 ! D49   D(19,22,26,13)        -53.3473         estimate D2E/DX2                !
 ! D50   D(27,22,26,11)        -68.0418         estimate D2E/DX2                !
 ! D51   D(27,22,26,12)        172.0338         estimate D2E/DX2                !
 ! D52   D(27,22,26,13)         52.0876         estimate D2E/DX2                !
 ! D53   D(28,22,26,11)         58.1246         estimate D2E/DX2                !
 ! D54   D(28,22,26,12)        -61.7998         estimate D2E/DX2                !
 ! D55   D(28,22,26,13)        178.254          estimate D2E/DX2                !
 ! D56   D(29,22,26,11)       -120.9809         estimate D2E/DX2                !
 ! D57   D(29,22,26,12)        119.0948         estimate D2E/DX2                !
 ! D58   D(29,22,26,13)         -0.8515         estimate D2E/DX2                !
 ! D59   D(19,22,27,14)       -102.3417         estimate D2E/DX2                !
 ! D60   D(19,22,27,15)        127.3656         estimate D2E/DX2                !
 ! D61   D(26,22,27,14)        143.2468         estimate D2E/DX2                !
 ! D62   D(26,22,27,15)         12.9542         estimate D2E/DX2                !
 ! D63   D(28,22,27,14)         19.0977         estimate D2E/DX2                !
 ! D64   D(28,22,27,15)       -111.195          estimate D2E/DX2                !
 ! D65   D(19,22,28,16)        171.9485         estimate D2E/DX2                !
 ! D66   D(19,22,28,17)         52.174          estimate D2E/DX2                !
 ! D67   D(19,22,28,18)        -68.2172         estimate D2E/DX2                !
 ! D68   D(26,22,28,16)        -62.8788         estimate D2E/DX2                !
 ! D69   D(26,22,28,17)        177.3467         estimate D2E/DX2                !
 ! D70   D(26,22,28,18)         56.9554         estimate D2E/DX2                !
 ! D71   D(27,22,28,16)         62.3413         estimate D2E/DX2                !
 ! D72   D(27,22,28,17)        -57.4332         estimate D2E/DX2                !
 ! D73   D(27,22,28,18)       -177.8245         estimate D2E/DX2                !
 ! D74   D(29,22,28,16)        115.9495         estimate D2E/DX2                !
 ! D75   D(29,22,28,17)         -3.825          estimate D2E/DX2                !
 ! D76   D(29,22,28,18)       -124.2162         estimate D2E/DX2                !
 ! D77   D(26,22,29,30)        168.7357         estimate D2E/DX2                !
 ! D78   D(28,22,29,30)        -10.0517         estimate D2E/DX2                !
 ! D79   D(14,27,29,19)        102.0644         estimate D2E/DX2                !
 ! D80   D(14,27,29,30)        -33.6197         estimate D2E/DX2                !
 ! D81   D(15,27,29,19)       -128.4322         estimate D2E/DX2                !
 ! D82   D(15,27,29,30)         95.8836         estimate D2E/DX2                !
 ! D83   D(19,29,30,34)         73.9909         estimate D2E/DX2                !
 ! D84   D(22,29,30,34)        139.8781         estimate D2E/DX2                !
 ! D85   D(27,29,30,34)       -170.4763         estimate D2E/DX2                !
 ! D86   D(29,30,34,32)         13.9056         estimate D2E/DX2                !
 ! D87   D(29,30,34,35)       -105.7109         estimate D2E/DX2                !
 ! D88   D(29,30,34,36)        132.7529         estimate D2E/DX2                !
 ! D89   D(1,31,33,32)        -156.2877         estimate D2E/DX2                !
 ! D90   D(1,31,33,37)          81.1534         estimate D2E/DX2                !
 ! D91   D(1,31,33,38)         -33.8927         estimate D2E/DX2                !
 ! D92   D(34,32,33,31)          5.7262         estimate D2E/DX2                !
 ! D93   D(34,32,33,37)        128.567          estimate D2E/DX2                !
 ! D94   D(34,32,33,38)       -108.8961         estimate D2E/DX2                !
 ! D95   D(33,32,34,30)         -2.3833         estimate D2E/DX2                !
 ! D96   D(33,32,34,35)        122.1701         estimate D2E/DX2                !
 ! D97   D(33,32,34,36)       -122.5332         estimate D2E/DX2                !
 ! D98   D(31,33,37,41)         85.7335         estimate D2E/DX2                !
 ! D99   D(32,33,37,41)        -33.8553         estimate D2E/DX2                !
 ! D100  D(38,33,37,41)       -161.1869         estimate D2E/DX2                !
 ! D101  D(31,33,38,42)        147.3753         estimate D2E/DX2                !
 ! D102  D(32,33,38,42)        -96.3874         estimate D2E/DX2                !
 ! D103  D(37,33,38,42)         28.6594         estimate D2E/DX2                !
 ! D104  D(30,34,35,39)         78.8569         estimate D2E/DX2                !
 ! D105  D(32,34,35,39)        -40.4489         estimate D2E/DX2                !
 ! D106  D(36,34,35,39)       -157.2855         estimate D2E/DX2                !
 ! D107  D(30,34,36,40)        145.981          estimate D2E/DX2                !
 ! D108  D(32,34,36,40)        -96.3989         estimate D2E/DX2                !
 ! D109  D(35,34,36,40)         19.4617         estimate D2E/DX2                !
 --------------------------------------------------------------------------------
 Trust Radius=3.00D-01 FncErr=1.00D-07 GrdErr=1.00D-06
 Number of steps in this run=    252 maximum allowed number of steps=    252.
 GradGradGradGradGradGradGradGradGradGradGradGradGradGradGradGradGradGrad

 Leave Link  103 at Sun Jul 16 12:22:38 2017, MaxMem=    33554432 cpu:         0.0
 (Enter /sw/chem/g09/l202.exe)
                          Input orientation:                          
 ---------------------------------------------------------------------
 Center     Atomic      Atomic             Coordinates (Angstroms)
 Number     Number       Type             X           Y           Z
 ---------------------------------------------------------------------
      1          1           0       -2.441926    3.449013    3.271994
      2          1           0        2.907046    1.478354    6.305407
      3          1           0        1.320572    1.938494    6.949150
      4          1           0        2.607322    3.147216    6.799071
      5          1           0        3.849964    2.584399    3.600563
      6          1           0        3.440692    4.257789    3.944126
      7          1           0        2.764204    3.460447    2.517881
      8          1           0        1.725068    0.346098    3.703743
      9          1           0        0.579015    1.309613    2.744247
     10          1           0        0.092416    0.678364    4.306216
     11          1           0       -0.933957    7.411874    6.357886
     12          1           0       -1.169923    5.806717    7.060796
     13          1           0       -1.958101    6.230665    5.535261
     14          1           0        1.605815    6.682534    3.137231
     15          1           0       -0.082316    7.342839    3.215869
     16          1           0        2.179099    7.068173    6.355406
     17          1           0        2.929570    5.609229    5.705499
     18          1           0        1.934724    5.509139    7.183285
     19          6           0        0.171067    3.936921    4.591200
     20          1           0       -0.729038    3.475665    5.017908
     21         14           0        1.574154    2.695586    4.570903
     22         14           0        0.466468    5.720937    5.169078
     23          6           0        2.154195    2.270593    6.320678
     24          6           0        3.037959    3.317492    3.560041
     25          6           0        0.942085    1.107793    3.765960
     26          6           0       -1.044330    6.354472    6.121168
     27          6           0        0.566202    6.482921    3.430517
     28          6           0        2.024611    6.003456    6.195167
     29         24           0       -0.088750    4.710990    2.762213
     30          8           0        0.535402    4.109763    1.151050
     31          8           0       -2.012491    3.553595    2.421464
     32          8           0       -1.117931    2.231665    0.301322
     33         14           0       -2.332641    2.267357    1.369592
     34         14           0        0.358780    2.995599    0.016298
     35          8           0        1.528661    1.824193   -0.017492
     36          8           0        0.329600    3.677299   -1.481629
     37          8           0       -3.798190    2.422088    0.623798
     38          8           0       -2.438175    0.962776    2.368284
     39          1           0        1.472018    1.113006    0.626407
     40          1           0        0.721006    3.163209   -2.193283
     41          1           0       -3.813801    2.949512   -0.179499
     42          1           0       -3.058420    0.287818    2.079215
 ---------------------------------------------------------------------
                    Distance matrix (angstroms):
                    1          2          3          4          5
     1  H    0.000000
     2  H    6.457290   0.000000
     3  H    5.473530   1.772860   0.000000
     4  H    6.166544   1.765967   1.771795   0.000000
     5  H    6.359512   3.070604   4.245945   3.477266   0.000000
     6  H    5.975874   3.685876   4.347897   3.174679   1.756637
     7  H    5.260476   4.277201   4.902709   4.295499   1.765937
     8  H    5.213284   3.073716   3.637583   4.266813   3.088012
     9  H    3.739202   4.257941   4.315855   4.892076   3.613511
    10  H    3.894740   3.543853   3.175121   4.316747   4.272012
    11  H    5.244136   7.068431   5.948982   5.560810   7.334388
    12  H    4.640235   5.993915   4.601976   4.626989   6.896072
    13  H    3.618570   6.844504   5.583145   5.652253   7.125443
    14  H    5.182473   6.230091   6.092455   5.187539   4.695273
    15  H    4.553327   7.271431   6.716578   6.138138   6.184947
    16  H    6.630205   5.637241   5.234807   3.969146   5.521339
    17  H    6.280243   4.174269   4.196408   2.713163   3.798352
    18  H    6.220722   4.238314   3.630635   2.485697   5.005811
    19  C    2.967506   4.058157   3.297727   3.381371   4.042890
    20  H    2.445999   4.343732   3.208347   3.796277   4.875498
    21  Si   4.287624   2.503350   2.508695   2.497226   2.476537
    22  Si   4.149617   5.024657   4.266735   3.723462   4.873003
    23  C    5.639812   1.093005   1.095534   1.096655   3.220735
    24  C    5.489026   3.307053   4.041920   3.271965   1.094723
    25  C    4.144496   3.232210   3.311497   4.016469   3.265499
    26  C    4.302646   6.278841   5.077320   4.907199   6.672407
    27  C    4.275343   6.228181   5.796695   5.161420   5.100047
    28  C    5.917776   4.611658   4.193814   2.976971   4.664101
    29  Cr   2.718437   5.654994   5.215684   5.100041   4.553975
    30  O    3.714765   6.254311   6.240903   6.092577   4.394675
    31  O    0.958516   6.602536   5.849598   6.377402   6.057887
    32  O    3.472721   7.267527   7.087021   7.545627   5.974060
    33  Si   2.242184   7.241486   6.677244   7.393012   6.580452
    34  Si   4.318460   6.953315   7.078626   7.147373   5.020399
    35  O    5.406137   6.480633   6.970686   7.027050   4.365396
    36  O    5.507304   8.492144   8.665074   8.604592   6.278222
    37  O    3.147534   8.839203   8.151421   8.926947   8.208638
    38  O    2.645388   6.658689   6.005376   7.061210   6.609755
    39  H    5.270201   5.868886   6.378201   6.597629   4.082307
    40  H    6.321003   8.935616   9.243565   9.188083   6.610148
    41  H    3.747579   9.454528   8.843166   9.485270   8.553097
    42  H    3.434522   7.407082   6.754004   7.909098   7.437375
                    6          7          8          9         10
     6  H    0.000000
     7  H    1.768492   0.000000
     8  H    4.278139   3.490737   0.000000
     9  H    4.280262   3.074472   1.778323   0.000000
    10  H    4.914707   4.251656   1.771702   1.753568   0.000000
    11  H    5.908641   6.635948   8.002505   7.251556   7.113575
    12  H    5.776727   6.451389   7.033430   6.474204   5.956611
    13  H    5.964136   6.251308   7.179716   6.200280   6.045099
    14  H    3.145988   3.479555   6.362828   5.484253   6.301346
    15  H    4.739143   4.864446   7.242861   6.087660   6.755340
    16  H    3.912051   5.299494   7.240425   6.982962   7.027310
    17  H    2.278173   3.847794   5.758333   5.725454   5.858401
    18  H    3.784966   5.162477   6.229620   6.259315   5.916757
    19  C    3.348449   3.354108   4.012045   3.237345   3.271941
    20  H    4.376228   4.295708   4.188539   3.401811   3.001031
    21  Si   2.513422   2.493217   2.508951   2.499579   2.516901
    22  Si   3.533740   4.173518   5.711407   5.035102   5.129521
    23  C    3.354403   4.031021   3.276611   4.024367   3.293051
    24  C    1.092645   1.086957   3.251694   3.277728   4.024674
    25  C    4.024581   3.226887   1.094126   1.102927   1.094634
    26  C    5.408421   5.988655   7.043725   6.284063   6.066667
    27  C    3.671199   3.847007   6.251257   5.218644   5.889330
    28  C    3.181167   4.531702   6.188911   6.002563   5.971442
    29  Cr   3.749569   3.124564   4.819616   3.466352   4.321902
    30  O    4.032852   2.693956   4.700715   3.221959   4.682500
    31  O    5.705400   4.778576   5.089364   3.443189   4.031114
    32  O    6.177074   4.636163   4.818140   3.114111   4.462831
    33  Si   6.627324   5.359091   5.060089   3.359269   4.126689
    34  Si   5.149674   3.501438   4.741714   3.214461   4.883024
    35  O    5.027193   3.260676   4.008857   2.965438   4.697890
    36  O    6.281296   4.687260   6.319202   4.850379   6.522961
    37  O    8.172869   6.908745   6.655988   4.989372   5.633613
    38  O    6.921088   5.772823   4.415465   3.060242   3.200056
    39  H    4.977208   3.279923   3.181537   2.306806   3.953885
    40  H    6.801661   5.143741   6.612047   5.275906   6.986635
    41  H    8.446511   7.127907   7.248200   5.525793   6.366968
    42  H    7.840728   6.645371   5.052153   3.836309   3.878122
                   11         12         13         14         15
    11  H    0.000000
    12  H    1.768132   0.000000
    13  H    1.766589   1.768676   0.000000
    14  H    4.165933   4.885298   4.319286   0.000000
    15  H    3.256122   4.280890   3.183564   1.814379   0.000000
    16  H    3.131973   3.647574   4.300056   3.291508   3.878934
    17  H    4.313001   4.322230   4.929959   3.082258   4.274941
    18  H    3.539917   3.121280   4.288434   4.225588   4.813657
    19  C    4.051858   3.375396   3.268925   3.422122   3.681849
    20  H    4.163085   3.130747   3.060764   4.390045   4.315163
    21  Si   5.632699   4.838250   5.089557   4.237000   5.116343
    22  Si   2.496742   2.502745   2.504485   2.520155   2.597452
    23  C    5.997569   4.909349   5.762814   5.468115   6.353700
    24  C    6.353583   6.013135   6.111357   3.681482   5.104703
    25  C    7.069586   6.115260   6.146977   5.649210   6.342539
    26  C    1.089182   1.094856   1.092517   4.004344   3.216069
    27  C    3.418029   4.080479   3.296314   1.098480   1.098230
    28  C    3.280738   3.315579   4.043401   3.160302   3.887069
    29  Cr   4.575807   4.565892   3.673375   2.626628   2.670669
    30  O    6.338304   6.380665   5.471480   3.421966   3.885593
    31  O    5.616491   5.225886   4.106750   4.836809   4.326087
    32  O    7.971849   7.646842   6.640181   5.938974   5.974210
    33  Si   7.301058   6.802116   5.762021   6.174931   5.850916
    34  Si   7.835202   7.737200   6.803862   4.988868   5.415747
    35  O    8.827917   8.558330   7.899846   5.793247   6.595857
    36  O    8.775057   8.930622   7.809609   5.656327   5.972633
    37  O    8.122903   7.732945   6.481794   7.326119   6.688822
    38  O    7.731136   6.862354   6.165296   7.047040   6.853734
    39  H    8.849537   8.391194   7.877373   6.110792   6.923300
    40  H    9.690849   9.808248   8.735977   6.448482   6.882845
    41  H    8.422801   8.220437   6.846026   7.369423   6.689830
    42  H    8.577444   7.670777   6.962211   7.985417   7.740962
                   16         17         18         19         20
    16  H    0.000000
    17  H    1.764682   0.000000
    18  H    1.782047   1.784261   0.000000
    19  C    4.116959   3.412860   3.507315   0.000000
    20  H    4.811681   4.290721   3.989925   1.097737   0.000000
    21  Si   4.761295   3.407899   3.856246   1.873493   2.472454
    22  Si   2.481033   2.523311   2.501532   1.898399   2.548202
    23  C    4.797770   3.482261   3.358636   3.114569   3.385623
    24  C    4.755977   3.141146   4.375882   3.109027   4.042358
    25  C    6.615252   5.289124   5.659973   3.046220   3.157031
    26  C    3.309793   4.064486   3.273751   3.108463   3.099052
    27  C    3.391008   3.394759   4.111493   2.825851   3.638825
    28  C    1.087734   1.101880   1.108515   3.206073   3.918960
    29  Cr   4.859062   4.310455   4.927207   2.002968   2.650313
    30  O    6.207999   5.359426   6.348560   3.463704   4.117460
    31  O    6.737773   6.279688   6.486879   3.102035   2.897386
    32  O    8.421054   7.549525   8.211087   4.792960   4.893358
    33  Si   8.262080   7.593356   7.906869   4.408487   4.164344
    34  Si   7.751368   6.768089   7.756751   4.674511   5.141003
    35  O    8.278661   7.002976   8.099068   5.248497   5.760193
    36  O    8.737150   7.883337   9.000711   6.080443   6.588274
    37  O    9.495547   9.013562   9.242459   5.812917   5.462410
    38  O    8.630888   7.844693   7.935735   4.538176   4.031906
    39  H    8.293697   6.938130   7.907764   5.038507   5.450879
    40  H    9.510776   8.558711   9.741485   6.850567   7.362169
    41  H    9.776666   9.337042   9.685444   6.293943   6.066765
    42  H    9.575522   8.793371   8.845632   5.482299   4.921819
                   21         22         23         24         25
    21  Si   0.000000
    22  Si   3.276817   0.000000
    23  C    1.891766   4.009923   0.000000
    24  C    1.884498   3.870157   3.081907   0.000000
    25  C    1.889056   4.845209   3.057433   3.052517   0.000000
    26  C    4.758910   1.894823   5.191188   5.696288   6.084447
    27  C    4.081710   1.900832   5.349622   4.018246   5.398686
    28  C    3.712566   1.886925   3.737220   3.896815   5.571393
    29  Cr   3.177808   2.668569   4.863025   3.514922   3.879840
    30  O    3.843735   4.329571   5.720847   3.562825   4.001871
    31  O    4.268523   4.288589   5.849037   5.182581   4.064374
    32  O    5.068714   6.195191   6.851348   5.391632   4.184551
    33  Si   5.069006   5.847933   6.681688   5.894421   4.220308
    34  Si   4.723512   5.830112   6.595025   4.454181   4.238398
    35  O    4.670628   6.573688   6.384588   4.160128   3.895101
    36  O    6.256662   6.958958   8.135353   5.734379   5.874920
    37  O    6.672070   7.051899   8.240648   7.493744   5.837016
    38  O    4.894175   6.238709   6.198521   6.078899   3.660695
    39  H    4.251357   6.548284   5.850649   3.989754   3.183968
    40  H    6.833794   7.798149   8.679765   6.204258   6.307629
    41  H    7.187549   7.389775   8.850435   7.814486   6.448025
    42  H    5.785032   7.175714   7.006623   6.966894   4.418315
                   26         27         28         29         30
    26  C    0.000000
    27  C    3.138457   0.000000
    28  C    3.089836   3.162299   0.000000
    29  Cr   3.859630   2.003829   4.233431   0.000000
    30  O    5.677706   3.290714   5.589896   1.829450   0.000000
    31  O    4.740259   4.030980   6.044902   2.270782   2.900868
    32  O    7.132571   5.540879   7.670684   3.641737   2.642499
    33  Si   6.398572   5.515585   7.498684   3.598025   3.415829
    34  Si   7.107755   4.884806   7.071112   3.268470   1.600068
    35  O    8.051513   5.875274   7.503955   4.321617   2.752432
    36  O    8.176641   5.661861   8.198614   4.387907   2.675888
    37  O    7.298525   6.589078   8.818807   4.855084   4.680413
    38  O    6.715454   6.373902   7.744027   4.441181   4.497482
    39  H    7.999836   6.125318   7.431887   4.465776   3.183246
    40  H    9.079134   6.532349   8.951675   5.254357   3.480657
    41  H    7.678680   6.685927   9.167878   5.062853   4.693837
    42  H    7.562951   7.303643   8.686011   5.371208   5.327693
                   31         32         33         34         35
    31  O    0.000000
    32  O    2.653816   0.000000
    33  Si   1.692140   1.618022   0.000000
    34  Si   3.423318   1.686864   3.099272   0.000000
    35  O    4.634554   2.696688   4.126748   1.655885   0.000000
    36  O    4.553551   2.713691   4.147882   1.646011   2.648669
    37  O    2.775001   2.706296   1.651661   4.240091   5.398525
    38  O    2.626096   2.761423   1.646346   4.181766   4.708477
    39  H    4.617413   2.839879   4.044784   2.270614   0.961042
    40  H    5.377759   3.236127   4.777174   2.245339   2.679428
    41  H    3.220969   2.830938   2.249189   4.177427   5.462096
    42  H    3.446215   3.271841   2.224611   4.823376   5.272375
                   36         37         38         39         40
    36  O    0.000000
    37  O    4.800732   0.000000
    38  O    5.463611   2.649993   0.000000
    39  H    3.510631   5.430359   4.283260   0.000000
    40  H    0.961217   5.376647   5.969106   3.566231   0.000000
    41  H    4.403747   0.961096   3.511505   5.653505   4.966434
    42  H    5.970500   2.687119   0.961162   4.828712   6.387971
                   41         42
    41  H    0.000000
    42  H    3.571695   0.000000
 Symmetry turned off by external request.
 Stoichiometry    C7H23CrO7Si4(2)
 Framework group  C1[X(C7H23CrO7Si4)]
 Deg. of freedom   120
 Full point group                 C1      NOp   1
 Rotational constants (GHZ):      0.3358072      0.1684981      0.1600272
 Leave Link  202 at Sun Jul 16 12:22:38 2017, MaxMem=    33554432 cpu:         1.3
 (Enter /sw/chem/g09/l301.exe)
 General basis read from cards:  (5D, 7F)
 Centers:      29
 def2TZVP
 ****
 Centers:       1      2      3      4      5      6      7      8      9     10
 Centers:      11     12     13     14     15     16     17     18     20     39
 Centers:      40     41     42     19     23     24     25     26     27     28
 Centers:      30     31     32     35     36     37     38     21     22     33
 Centers:      34
 TZVP
 ****
 Ernie: Thresh=  0.10000D-02 Tol=  0.10000D-05 Strict=F.
   537 basis functions,   964 primitive gaussians,   562 cartesian basis functions
   101 alpha electrons      100 beta electrons
       nuclear repulsion energy      2791.5323852692 Hartrees.
 IExCor= 4639 DFT=T Ex+Corr=wB97XD ExCW=0 ScaHFX=  1.000000
 ScaDFX=  1.000000  1.000000  1.000000  1.000000 ScalE2=  1.000000  1.000000
 IRadAn=      0 IRanWt=     -1 IRanGd=            0 ICorTp=0 IEmpDi=121
  HFx wShort=  0.000000 wLong=  0.200000 cFull=  0.222036 cShort=  0.000000 cLong=  0.777964
  DFx wShort=  0.000000 wLong=  0.200000 cFull=  0.000000 cShort=  0.000000 cLong=  1.000000
 NAtoms=   42 NActive=   42 NUniq=   42 SFac= 1.00D+00 NAtFMM=   60 NAOKFM=F Big=F
 Integral buffers will be    131072 words long.
 Raffenetti 2 integral format.
 Two-electron integral symmetry is turned off.
 R6Disp:  Grimme-D2 Dispersion energy=       -0.0383780189 Hartrees.
 Nuclear repulsion after empirical dispersion term =     2791.4940072503 Hartrees.
 Leave Link  301 at Sun Jul 16 12:22:39 2017, MaxMem=    33554432 cpu:         0.1
 (Enter /sw/chem/g09/l302.exe)
 NPDir=0 NMtPBC=     1 NCelOv=     1 NCel=       1 NClECP=     1 NCelD=      1
         NCelK=      1 NCelE2=     1 NClLst=     1 CellRange=     0.0.
 One-electron integrals computed using PRISM.
 PrsmSu:  requested number of processors reduced to:   3 ShMem   1 Linda.
 NBasis=   537 RedAO= T EigKep=  2.18D-04  NBF=   537
 NBsUse=   537 1.00D-06 EigRej= -1.00D+00 NBFU=   537
 Precomputing XC quadrature grid using
 IXCGrd= 4 IRadAn=           0 IRanWt=          -1 IRanGd=           0 AccXCQ= 0.00D+00.
 Generated NRdTot=       0 NPtTot=           0 NUsed=           0 NTot=          32
 NSgBfM=   538   539   539   539   539 MxSgAt=    42 MxSgA2=    42.
 Leave Link  302 at Sun Jul 16 12:22:57 2017, MaxMem=    33554432 cpu:        89.5
 (Enter /sw/chem/g09/l303.exe)
 DipDrv:  MaxL=1.
 Leave Link  303 at Sun Jul 16 12:23:00 2017, MaxMem=    33554432 cpu:         5.3
 (Enter /sw/chem/g09/l401.exe)
 ExpMin= 3.41D-02 ExpMax= 2.54D+05 ExpMxC= 2.46D+03 IAcc=3 IRadAn=         5 AccDes= 0.00D+00
 Harris functional with IExCor= 4639 and IRadAn=       5 diagonalized for initial guess.
 HarFok:  IExCor= 4639 AccDes= 0.00D+00 IRadAn=         5 IDoV= 1 UseB2=F ITyADJ=14
 ICtDFT=  3500011 ScaDFX=  1.000000  1.000000  1.000000  1.000000
 FoFCou: FMM=F IPFlag=           0 FMFlag=      100000 FMFlg1=           0
         NFxFlg=           0 DoJE=T BraDBF=F KetDBF=T FulRan=T
         wScrn=  0.000000 ICntrl=     500 IOpCl=  0 I1Cent=   200000004 NGrid=           0
         NMat0=    1 NMatS0=      1 NMatT0=    0 NMatD0=    1 NMtDS0=    0 NMtDT0=    0
 Symmetry not used in FoFCou.
 CoulSu:  requested number of processors reduced to:  11 ShMem   1 Linda.
 CoulSu:  requested number of processors reduced to:  11 ShMem   1 Linda.
 Harris En= -2942.80096412339    
 JPrj=0 DoOrth=F DoCkMO=F.
 Initial guess <Sx>= 0.0000 <Sy>= 0.0000 <Sz>= 0.5000 <S**2>= 0.7500 S= 0.5000
 Leave Link  401 at Sun Jul 16 12:23:21 2017, MaxMem=    33554432 cpu:       120.6
 (Enter /sw/chem/g09/l502.exe)
 UHF open shell SCF:
 Using DIIS extrapolation, IDIIS=  1040.
 Two-electron integral symmetry not used.
 IVT=     1964258 IEndB=     1964258 NGot=    33554432 MDV=    32908581
 LenX=    32908581 LenY=    32592175
 Requested convergence on RMS density matrix=1.00D-08 within1000 cycles.
 Requested convergence on MAX density matrix=1.00D-06.
 Requested convergence on             energy=1.00D-06.
 No special actions if energy rises.
 Fock matrices will be formed incrementally for  20 cycles.

 Cycle   1  Pass 1  IDiag  1:
 FoFJK:  IHMeth= 1 ICntrl=       0 DoSepK=T KAlg= 0 I1Cent=   0 FoldK=F
 IRaf=         1 NMat=   1 IRICut=       1 DoRegI=T DoRafI=F ISym2E= 0.
 FoFCou: FMM=F IPFlag=           0 FMFlag=      100000 FMFlg1=           0
         NFxFlg=           0 DoJE=T BraDBF=F KetDBF=F FulRan=T
         wScrn=  0.000000 ICntrl=     500 IOpCl=  0 I1Cent=           0 NGrid=           0
         NMat0=    1 NMatS0=      1 NMatT0=    0 NMatD0=    1 NMtDS0=    0 NMtDT0=    0
 Symmetry not used in FoFCou.
 CoulSu:  requested number of processors reduced to:  11 ShMem   1 Linda.
 CoulSu:  requested number of processors reduced to:  11 ShMem   1 Linda.
 CoulSu:  requested number of processors reduced to:  11 ShMem   1 Linda.
 E= -3005.42193742159    
 DIIS: error= 6.86D-02 at cycle   1 NSaved=   1.
 NSaved= 1 IEnMin= 1 EnMin= -3005.42193742159     IErMin= 1 ErrMin= 6.86D-02
 ErrMax= 6.86D-02  0.00D+00 EMaxC= 1.00D-01 BMatC= 2.58D+01 BMatP= 2.58D+01
 IDIUse=3 WtCom= 3.14D-01 WtEn= 6.86D-01
 Coeff-Com:  0.100D+01
 Coeff-En:   0.100D+01
 Coeff:      0.100D+01
 Gap=     0.221 Goal=   None    Shift=    0.000
 Gap=     0.124 Goal=   None    Shift=    0.000
 GapD=    0.124 DampG=1.000 DampE=0.250 DampFc=0.2500 IDamp=-1.
 Damping current iteration by 2.50D-01
 RMSDP=3.36D-02 MaxDP=8.11D+00              OVMax= 9.88D-01

 Cycle   2  Pass 1  IDiag  1:
 RMSU=  6.12D-03    CP:  8.04D-01
 CoulSu:  requested number of processors reduced to:  11 ShMem   1 Linda.
 CoulSu:  requested number of processors reduced to:  11 ShMem   1 Linda.
 CoulSu:  requested number of processors reduced to:  11 ShMem   1 Linda.
 E= -3006.77661960850     Delta-E=       -1.354682186914 Rises=F Damp=T
 DIIS: error= 4.74D-02 at cycle   2 NSaved=   2.
 NSaved= 2 IEnMin= 2 EnMin= -3006.77661960850     IErMin= 2 ErrMin= 4.74D-02
 ErrMax= 4.74D-02  0.00D+00 EMaxC= 1.00D-01 BMatC= 6.70D+00 BMatP= 2.58D+01
 IDIUse=3 WtCom= 5.26D-01 WtEn= 4.74D-01
 Coeff-Com: -0.779D-01 0.108D+01
 Coeff-En:   0.340D+00 0.660D+00
 Coeff:      0.120D+00 0.880D+00
 Gap=     0.209 Goal=   None    Shift=    0.000
 Gap=    -0.078 Goal=   None    Shift=    0.000
 RMSDP=1.93D-02 MaxDP=6.03D+00 DE=-1.35D+00 OVMax= 8.29D-01

 Cycle   3  Pass 1  IDiag  1:
 RMSU=  9.72D-03    CP:  2.37D-01  1.02D+00
 CoulSu:  requested number of processors reduced to:  11 ShMem   1 Linda.
 CoulSu:  requested number of processors reduced to:  11 ShMem   1 Linda.
 CoulSu:  requested number of processors reduced to:  11 ShMem   1 Linda.
 E= -3009.61284446921     Delta-E=       -2.836224860705 Rises=F Damp=F
 DIIS: error= 1.42D-02 at cycle   3 NSaved=   3.
 NSaved= 3 IEnMin= 3 EnMin= -3009.61284446921     IErMin= 3 ErrMin= 1.42D-02
 ErrMax= 1.42D-02  0.00D+00 EMaxC= 1.00D-01 BMatC= 2.08D+00 BMatP= 6.70D+00
 IDIUse=3 WtCom= 8.58D-01 WtEn= 1.42D-01
 Coeff-Com:  0.479D-01 0.238D+00 0.714D+00
 Coeff-En:   0.000D+00 0.000D+00 0.100D+01
 Coeff:      0.411D-01 0.204D+00 0.755D+00
 Gap=     0.243 Goal=   None    Shift=    0.000
 Gap=     0.238 Goal=   None    Shift=    0.000
 RMSDP=2.99D-03 MaxDP=1.92D-01 DE=-2.84D+00 OVMax= 1.90D-01

 Cycle   4  Pass 1  IDiag  1:
 RMSU=  2.81D-03    CP:  2.06D-01  9.72D-01  9.64D-01
 CoulSu:  requested number of processors reduced to:  11 ShMem   1 Linda.
 CoulSu:  requested number of processors reduced to:  11 ShMem   1 Linda.
 E= -3009.88783511563     Delta-E=       -0.274990646421 Rises=F Damp=F
 DIIS: error= 1.57D-02 at cycle   4 NSaved=   4.
 NSaved= 4 IEnMin= 4 EnMin= -3009.88783511563     IErMin= 3 ErrMin= 1.42D-02
 ErrMax= 1.57D-02  0.00D+00 EMaxC= 1.00D-01 BMatC= 1.32D+00 BMatP= 2.08D+00
 IDIUse=3 WtCom= 8.43D-01 WtEn= 1.57D-01
 Coeff-Com: -0.335D-01 0.107D+00 0.405D+00 0.521D+00
 Coeff-En:   0.000D+00 0.000D+00 0.286D+00 0.714D+00
 Coeff:     -0.283D-01 0.904D-01 0.386D+00 0.551D+00
 Gap=     0.250 Goal=   None    Shift=    0.000
 Gap=     0.253 Goal=   None    Shift=    0.000
 RMSDP=9.02D-04 MaxDP=1.22D-01 DE=-2.75D-01 OVMax= 9.05D-02

 Cycle   5  Pass 1  IDiag  1:
 RMSU=  7.94D-04    CP:  1.95D-01  9.93D-01  9.76D-01  9.23D-01
 CoulSu:  requested number of processors reduced to:  11 ShMem   1 Linda.
 CoulSu:  requested number of processors reduced to:  11 ShMem   1 Linda.
 E= -3010.10879855783     Delta-E=       -0.220963442205 Rises=F Damp=F
 DIIS: error= 2.49D-03 at cycle   5 NSaved=   5.
 NSaved= 5 IEnMin= 5 EnMin= -3010.10879855783     IErMin= 5 ErrMin= 2.49D-03
 ErrMax= 2.49D-03  0.00D+00 EMaxC= 1.00D-01 BMatC= 4.14D-02 BMatP= 1.32D+00
 IDIUse=3 WtCom= 9.75D-01 WtEn= 2.49D-02
 Coeff-Com: -0.128D-01 0.198D-01 0.778D-01 0.187D+00 0.729D+00
 Coeff-En:   0.000D+00 0.000D+00 0.000D+00 0.000D+00 0.100D+01
 Coeff:     -0.125D-01 0.193D-01 0.759D-01 0.182D+00 0.735D+00
 Gap=     0.265 Goal=   None    Shift=    0.000
 Gap=     0.265 Goal=   None    Shift=    0.000
 RMSDP=3.55D-04 MaxDP=3.56D-02 DE=-2.21D-01 OVMax= 4.29D-02

 Cycle   6  Pass 1  IDiag  1:
 RMSU=  2.68D-04    CP:  1.92D-01  9.87D-01  9.77D-01  9.56D-01  1.23D+00
 CoulSu:  requested number of processors reduced to:  11 ShMem   1 Linda.
 CoulSu:  requested number of processors reduced to:  11 ShMem   1 Linda.
 E= -3010.11839723323     Delta-E=       -0.009598675400 Rises=F Damp=F
 DIIS: error= 1.33D-03 at cycle   6 NSaved=   6.
 NSaved= 6 IEnMin= 6 EnMin= -3010.11839723323     IErMin= 6 ErrMin= 1.33D-03
 ErrMax= 1.33D-03  0.00D+00 EMaxC= 1.00D-01 BMatC= 1.06D-02 BMatP= 4.14D-02
 IDIUse=3 WtCom= 9.87D-01 WtEn= 1.33D-02
 Coeff-Com: -0.131D-02-0.228D-02-0.234D-01-0.192D-01 0.320D+00 0.727D+00
 Coeff-En:   0.000D+00 0.000D+00 0.000D+00 0.000D+00 0.000D+00 0.100D+01
 Coeff:     -0.129D-02-0.225D-02-0.231D-01-0.190D-01 0.315D+00 0.730D+00
 Gap=     0.273 Goal=   None    Shift=    0.000
 Gap=     0.273 Goal=   None    Shift=    0.000
 RMSDP=2.05D-04 MaxDP=2.34D-02 DE=-9.60D-03 OVMax= 3.37D-02

 Cycle   7  Pass 1  IDiag  1:
 RMSU=  1.12D-04    CP:  1.90D-01  9.89D-01  9.74D-01  9.84D-01  1.41D+00
                    CP:  1.13D+00
 CoulSu:  requested number of processors reduced to:  11 ShMem   1 Linda.
 CoulSu:  requested number of processors reduced to:  11 ShMem   1 Linda.
 E= -3010.12230944899     Delta-E=       -0.003912215758 Rises=F Damp=F
 DIIS: error= 7.07D-04 at cycle   7 NSaved=   7.
 NSaved= 7 IEnMin= 7 EnMin= -3010.12230944899     IErMin= 7 ErrMin= 7.07D-04
 ErrMax= 7.07D-04  0.00D+00 EMaxC= 1.00D-01 BMatC= 1.34D-03 BMatP= 1.06D-02
 IDIUse=3 WtCom= 9.93D-01 WtEn= 7.07D-03
 Coeff-Com:  0.232D-02-0.382D-02-0.144D-01-0.237D-01 0.188D-01 0.246D+00
 Coeff-Com:  0.775D+00
 Coeff-En:   0.000D+00 0.000D+00 0.000D+00 0.000D+00 0.000D+00 0.000D+00
 Coeff-En:   0.100D+01
 Coeff:      0.230D-02-0.379D-02-0.143D-01-0.235D-01 0.187D-01 0.245D+00
 Coeff:      0.776D+00
 Gap=     0.275 Goal=   None    Shift=    0.000
 Gap=     0.274 Goal=   None    Shift=    0.000
 RMSDP=1.01D-04 MaxDP=1.15D-02 DE=-3.91D-03 OVMax= 2.58D-02

 Cycle   8  Pass 1  IDiag  1:
 RMSU=  5.07D-05    CP:  1.90D-01  9.88D-01  9.73D-01  9.92D-01  1.48D+00
                    CP:  1.26D+00  1.35D+00
 CoulSu:  requested number of processors reduced to:  11 ShMem   1 Linda.
 CoulSu:  requested number of processors reduced to:  11 ShMem   1 Linda.
 E= -3010.12363716488     Delta-E=       -0.001327715891 Rises=F Damp=F
 DIIS: error= 6.34D-04 at cycle   8 NSaved=   8.
 NSaved= 8 IEnMin= 8 EnMin= -3010.12363716488     IErMin= 8 ErrMin= 6.34D-04
 ErrMax= 6.34D-04  0.00D+00 EMaxC= 1.00D-01 BMatC= 8.05D-04 BMatP= 1.34D-03
 IDIUse=3 WtCom= 9.94D-01 WtEn= 6.34D-03
 Coeff-Com:  0.318D-02-0.343D-02 0.283D-02 0.693D-02-0.529D-01-0.936D-01
 Coeff-Com:  0.197D+00 0.940D+00
 Coeff-En:   0.000D+00 0.000D+00 0.000D+00 0.000D+00 0.000D+00 0.000D+00
 Coeff-En:   0.000D+00 0.100D+01
 Coeff:      0.316D-02-0.341D-02 0.281D-02 0.689D-02-0.525D-01-0.930D-01
 Coeff:      0.196D+00 0.940D+00
 Gap=     0.276 Goal=   None    Shift=    0.000
 Gap=     0.275 Goal=   None    Shift=    0.000
 RMSDP=7.61D-05 MaxDP=8.63D-03 DE=-1.33D-03 OVMax= 2.90D-02

 Cycle   9  Pass 1  IDiag  1:
 RMSU=  3.42D-05    CP:  1.89D-01  9.88D-01  9.72D-01  9.95D-01  1.53D+00
                    CP:  1.38D+00  1.70D+00  1.61D+00
 CoulSu:  requested number of processors reduced to:  11 ShMem   1 Linda.
 CoulSu:  requested number of processors reduced to:  11 ShMem   1 Linda.
 E= -3010.12472703795     Delta-E=       -0.001089873063 Rises=F Damp=F
 DIIS: error= 5.45D-04 at cycle   9 NSaved=   9.
 NSaved= 9 IEnMin= 9 EnMin= -3010.12472703795     IErMin= 9 ErrMin= 5.45D-04
 ErrMax= 5.45D-04  0.00D+00 EMaxC= 1.00D-01 BMatC= 3.68D-04 BMatP= 8.05D-04
 IDIUse=3 WtCom= 9.95D-01 WtEn= 5.45D-03
 Coeff-Com:  0.135D-03-0.296D-04 0.659D-02 0.162D-01 0.133D-01-0.704D-01
 Coeff-Com: -0.375D+00-0.274D+00 0.168D+01
 Coeff-En:   0.000D+00 0.000D+00 0.000D+00 0.000D+00 0.000D+00 0.000D+00
 Coeff-En:   0.000D+00 0.000D+00 0.100D+01
 Coeff:      0.135D-03-0.295D-04 0.656D-02 0.161D-01 0.132D-01-0.700D-01
 Coeff:     -0.373D+00-0.273D+00 0.168D+01
 Gap=     0.278 Goal=   None    Shift=    0.000
 Gap=     0.276 Goal=   None    Shift=    0.000
 RMSDP=1.06D-04 MaxDP=1.42D-02 DE=-1.09D-03 OVMax= 4.88D-02

 Cycle  10  Pass 1  IDiag  1:
 RMSU=  2.66D-05    CP:  1.89D-01  9.87D-01  9.72D-01  9.97D-01  1.56D+00
                    CP:  1.47D+00  2.13D+00  2.87D+00  2.55D+00
 CoulSu:  requested number of processors reduced to:  11 ShMem   1 Linda.
 CoulSu:  requested number of processors reduced to:  11 ShMem   1 Linda.
 E= -3010.12606316632     Delta-E=       -0.001336128371 Rises=F Damp=F
 DIIS: error= 4.22D-04 at cycle  10 NSaved=  10.
 NSaved=10 IEnMin=10 EnMin= -3010.12606316632     IErMin=10 ErrMin= 4.22D-04
 ErrMax= 4.22D-04  0.00D+00 EMaxC= 1.00D-01 BMatC= 2.27D-04 BMatP= 3.68D-04
 IDIUse=3 WtCom= 9.96D-01 WtEn= 4.22D-03
 Coeff-Com: -0.987D-03 0.151D-02 0.378D-02 0.629D-02 0.122D-01-0.205D-01
 Coeff-Com: -0.203D+00-0.256D+00 0.773D+00 0.683D+00
 Coeff-En:   0.000D+00 0.000D+00 0.000D+00 0.000D+00 0.000D+00 0.000D+00
 Coeff-En:   0.000D+00 0.000D+00 0.000D+00 0.100D+01
 Coeff:     -0.983D-03 0.150D-02 0.377D-02 0.626D-02 0.121D-01-0.204D-01
 Coeff:     -0.203D+00-0.255D+00 0.770D+00 0.685D+00
 Gap=     0.279 Goal=   None    Shift=    0.000
 Gap=     0.277 Goal=   None    Shift=    0.000
 RMSDP=4.03D-05 MaxDP=5.46D-03 DE=-1.34D-03 OVMax= 2.05D-02

 Cycle  11  Pass 1  IDiag  1:
 RMSU=  2.17D-05    CP:  1.89D-01  9.87D-01  9.72D-01  9.97D-01  1.56D+00
                    CP:  1.49D+00  2.25D+00  3.00D+00  3.00D+00  1.47D+00
 CoulSu:  requested number of processors reduced to:  11 ShMem   1 Linda.
 CoulSu:  requested number of processors reduced to:  11 ShMem   1 Linda.
 E= -3010.12652389415     Delta-E=       -0.000460727829 Rises=F Damp=F
 DIIS: error= 3.77D-04 at cycle  11 NSaved=  11.
 NSaved=11 IEnMin=11 EnMin= -3010.12652389415     IErMin=11 ErrMin= 3.77D-04
 ErrMax= 3.77D-04  0.00D+00 EMaxC= 1.00D-01 BMatC= 1.88D-04 BMatP= 2.27D-04
 IDIUse=3 WtCom= 9.96D-01 WtEn= 3.77D-03
 Coeff-Com: -0.779D-03 0.137D-02 0.190D-02-0.510D-04-0.640D-02-0.223D-01
 Coeff-Com: -0.209D-02 0.150D+00-0.182D+00-0.105D+00 0.117D+01
 Coeff-En:   0.000D+00 0.000D+00 0.000D+00 0.000D+00 0.000D+00 0.000D+00
 Coeff-En:   0.000D+00 0.000D+00 0.000D+00 0.000D+00 0.100D+01
 Coeff:     -0.776D-03 0.136D-02 0.189D-02-0.508D-04-0.638D-02-0.223D-01
 Coeff:     -0.208D-02 0.149D+00-0.182D+00-0.104D+00 0.117D+01
 Gap=     0.279 Goal=   None    Shift=    0.000
 Gap=     0.277 Goal=   None    Shift=    0.000
 RMSDP=4.37D-05 MaxDP=5.86D-03 DE=-4.61D-04 OVMax= 2.34D-02

 Cycle  12  Pass 1  IDiag  1:
 RMSU=  1.62D-05    CP:  1.89D-01  9.88D-01  9.71D-01  9.96D-01  1.56D+00
                    CP:  1.50D+00  2.34D+00  3.00D+00  3.00D+00  2.14D+00
                    CP:  2.59D+00
 CoulSu:  requested number of processors reduced to:  11 ShMem   1 Linda.
 CoulSu:  requested number of processors reduced to:  11 ShMem   1 Linda.
 E= -3010.12702395615     Delta-E=       -0.000500062002 Rises=F Damp=F
 DIIS: error= 3.66D-04 at cycle  12 NSaved=  12.
 NSaved=12 IEnMin=12 EnMin= -3010.12702395615     IErMin=12 ErrMin= 3.66D-04
 ErrMax= 3.66D-04  0.00D+00 EMaxC= 1.00D-01 BMatC= 1.56D-04 BMatP= 1.88D-04
 IDIUse=3 WtCom= 9.96D-01 WtEn= 3.66D-03
 Coeff-Com: -0.270D-03 0.520D-03 0.111D-02 0.175D-03-0.352D-02-0.191D-01
 Coeff-Com:  0.923D-02 0.152D+00-0.207D+00-0.407D+00 0.417D+00 0.106D+01
 Coeff-En:   0.000D+00 0.000D+00 0.000D+00 0.000D+00 0.000D+00 0.000D+00
 Coeff-En:   0.000D+00 0.000D+00 0.000D+00 0.000D+00 0.000D+00 0.100D+01
 Coeff:     -0.269D-03 0.518D-03 0.110D-02 0.174D-03-0.350D-02-0.191D-01
 Coeff:      0.919D-02 0.151D+00-0.207D+00-0.405D+00 0.415D+00 0.106D+01
 Gap=     0.280 Goal=   None    Shift=    0.000
 Gap=     0.278 Goal=   None    Shift=    0.000
 RMSDP=5.45D-05 MaxDP=7.24D-03 DE=-5.00D-04 OVMax= 2.98D-02

 Cycle  13  Pass 1  IDiag  1:
 RMSU=  3.41D-05    CP:  1.89D-01  9.88D-01  9.71D-01  9.96D-01  1.57D+00
                    CP:  1.52D+00  2.46D+00  3.00D+00  3.00D+00  3.00D+00
                    CP:  3.00D+00  2.07D+00
 CoulSu:  requested number of processors reduced to:  11 ShMem   1 Linda.
 CoulSu:  requested number of processors reduced to:  11 ShMem   1 Linda.
 E= -3010.12765411901     Delta-E=       -0.000630162860 Rises=F Damp=F
 DIIS: error= 3.69D-04 at cycle  13 NSaved=  13.
 NSaved=13 IEnMin=13 EnMin= -3010.12765411901     IErMin=12 ErrMin= 3.66D-04
 ErrMax= 3.69D-04  0.00D+00 EMaxC= 1.00D-01 BMatC= 1.52D-04 BMatP= 1.56D-04
 IDIUse=3 WtCom= 9.96D-01 WtEn= 3.66D-03
 Coeff-Com: -0.272D-03 0.532D-03 0.105D-02-0.130D-03-0.514D-02-0.213D-01
 Coeff-Com:  0.188D-01 0.185D+00-0.265D+00-0.484D+00 0.471D+00 0.123D+01
 Coeff-Com: -0.135D+00
 Coeff-En:   0.000D+00 0.000D+00 0.000D+00 0.000D+00 0.000D+00 0.000D+00
 Coeff-En:   0.000D+00 0.000D+00 0.000D+00 0.000D+00 0.000D+00 0.000D+00
 Coeff-En:   0.100D+01
 Coeff:     -0.271D-03 0.530D-03 0.104D-02-0.129D-03-0.512D-02-0.212D-01
 Coeff:      0.187D-01 0.185D+00-0.264D+00-0.482D+00 0.469D+00 0.123D+01
 Coeff:     -0.131D+00
 Gap=     0.280 Goal=   None    Shift=    0.000
 Gap=     0.278 Goal=   None    Shift=    0.000
 RMSDP=2.39D-06 MaxDP=3.02D-04 DE=-6.30D-04 OVMax= 1.23D-03

 Cycle  14  Pass 1  IDiag  1:
 RMSU=  1.46D-06    CP:  1.89D-01  9.88D-01  9.71D-01  9.96D-01  1.57D+00
                    CP:  1.52D+00  2.46D+00  3.00D+00  3.00D+00  3.00D+00
                    CP:  3.00D+00  2.01D+00  9.53D-01
 CoulSu:  requested number of processors reduced to:  11 ShMem   1 Linda.
 CoulSu:  requested number of processors reduced to:  11 ShMem   1 Linda.
 E= -3010.12762593269     Delta-E=        0.000028186321 Rises=F Damp=F
 DIIS: error= 3.67D-04 at cycle  14 NSaved=  14.
 NSaved=14 IEnMin=13 EnMin= -3010.12765411901     IErMin=12 ErrMin= 3.66D-04
 ErrMax= 3.67D-04  0.00D+00 EMaxC= 1.00D-01 BMatC= 1.51D-04 BMatP= 1.52D-04
 IDIUse=3 WtCom= 9.96D-01 WtEn= 3.66D-03
 Large coefficients: NSaved= 14 BigCof=   38.81 CofMax=   10.00 Det=-2.58D-08
 Inversion failed.  Reducing to 13 matrices.
 Large coefficients: NSaved= 13 BigCof=   37.93 CofMax=   10.00 Det=-2.71D-08
 Inversion failed.  Reducing to 12 matrices.
 Large coefficients: NSaved= 12 BigCof=   37.78 CofMax=   10.00 Det=-2.74D-08
 Inversion failed.  Reducing to 11 matrices.
 Large coefficients: NSaved= 11 BigCof=   37.82 CofMax=   10.00 Det=-2.74D-08
 Inversion failed.  Reducing to 10 matrices.
 Large coefficients: NSaved= 10 BigCof=   37.88 CofMax=   10.00 Det=-2.49D-08
 Inversion failed.  Reducing to  9 matrices.
 Large coefficients: NSaved=  9 BigCof=   36.92 CofMax=   10.00 Det=-2.55D-08
 Inversion failed.  Reducing to  8 matrices.
 Large coefficients: NSaved=  8 BigCof=   29.84 CofMax=   10.00 Det=-2.91D-08
 Inversion failed.  Reducing to  7 matrices.
 Large coefficients: NSaved=  7 BigCof=   29.12 CofMax=   10.00 Det=-2.97D-08
 Inversion failed.  Reducing to  6 matrices.
 Large coefficients: NSaved=  6 BigCof=   28.50 CofMax=   10.00 Det=-3.00D-08
 Inversion failed.  Reducing to  5 matrices.
 Large coefficients: NSaved=  5 BigCof=   25.28 CofMax=   10.00 Det=-3.65D-08
 Inversion failed.  Reducing to  4 matrices.
 Large coefficients: NSaved=  4 BigCof=   18.99 CofMax=   10.00 Det=-4.50D-08
 Inversion failed.  Reducing to  3 matrices.
 Large coefficients: NSaved=  3 BigCof=   17.68 CofMax=   10.00 Det=-4.86D-08
 Inversion failed.  Reducing to  2 matrices.
 Large coefficients: NSaved=  2 BigCof=   12.00 CofMax=   10.00 Det=-6.12D-08
 Coeff-Com: -0.110D+02 0.120D+02
 Coeff-En:   0.000D+00 0.100D+01
 Coeff:     -0.110D+02 0.120D+02
 Gap=     0.280 Goal=   None    Shift=    0.000
 Gap=     0.278 Goal=   None    Shift=    0.000
 RMSDP=1.29D-05 MaxDP=1.79D-03 DE= 2.82D-05 OVMax= 4.92D-03

 Cycle  15  Pass 1  IDiag  1:
 RMSU=  8.14D-06    CP:  1.89D-01  9.88D-01  9.71D-01  9.96D-01  1.57D+00
                    CP:  1.52D+00  2.49D+00  3.00D+00  3.00D+00  3.00D+00
                    CP:  3.00D+00  2.24D+00  1.18D+00  3.00D+00
 CoulSu:  requested number of processors reduced to:  11 ShMem   1 Linda.
 CoulSu:  requested number of processors reduced to:  11 ShMem   1 Linda.
 E= -3010.12771340969     Delta-E=       -0.000087476999 Rises=F Damp=F
 DIIS: error= 3.60D-04 at cycle  15 NSaved=   3.
 NSaved= 3 IEnMin= 3 EnMin= -3010.12771340969     IErMin= 3 ErrMin= 3.60D-04
 ErrMax= 3.60D-04  0.00D+00 EMaxC= 1.00D-01 BMatC= 1.59D-04 BMatP= 1.51D-04
 IDIUse=3 WtCom= 9.96D-01 WtEn= 3.60D-03
 Large coefficients: NSaved=  3 BigCof=   53.54 CofMax=   10.00 Det=-1.84D-08
 Inversion failed.  Reducing to  2 matrices.
 Coeff-Com:  0.682D+00 0.318D+00
 Coeff-En:   0.000D+00 0.100D+01
 Coeff:      0.679D+00 0.321D+00
 Gap=     0.280 Goal=   None    Shift=    0.000
 Gap=     0.279 Goal=   None    Shift=    0.000
 RMSDP=3.06D-05 MaxDP=3.81D-03 DE=-8.75D-05 OVMax= 1.62D-02

 Cycle  16  Pass 1  IDiag  1:
 RMSU=  9.81D-06    CP:  1.89D-01  9.88D-01  9.71D-01  9.96D-01  1.57D+00
                    CP:  1.52D+00  2.52D+00  3.00D+00  3.00D+00  3.00D+00
                    CP:  3.00D+00  2.87D+00  1.82D+00 -3.00D+00  8.94D-01
 CoulSu:  requested number of processors reduced to:  11 ShMem   1 Linda.
 CoulSu:  requested number of processors reduced to:  11 ShMem   1 Linda.
 E= -3010.12809085604     Delta-E=       -0.000377446349 Rises=F Damp=F
 DIIS: error= 3.79D-04 at cycle  16 NSaved=   3.
 NSaved= 3 IEnMin= 3 EnMin= -3010.12809085604     IErMin= 2 ErrMin= 3.60D-04
 ErrMax= 3.79D-04  0.00D+00 EMaxC= 1.00D-01 BMatC= 1.71D-04 BMatP= 1.51D-04
 IDIUse=3 WtCom= 9.96D-01 WtEn= 3.60D-03
 Coeff-Com:  0.139D+01 0.279D+00-0.669D+00
 Coeff-En:   0.000D+00 0.000D+00 0.100D+01
 Coeff:      0.138D+01 0.278D+00-0.663D+00
 Gap=     0.280 Goal=   None    Shift=    0.000
 Gap=     0.278 Goal=   None    Shift=    0.000
 RMSDP=2.65D-05 MaxDP=3.51D-03 DE=-3.77D-04 OVMax= 1.45D-02

 Cycle  17  Pass 1  IDiag  1:
 RMSU=  2.94D-06    CP:  1.89D-01  9.88D-01  9.71D-01  9.96D-01  1.57D+00
                    CP:  1.52D+00  2.49D+00  3.00D+00  3.00D+00  3.00D+00
                    CP:  3.00D+00  2.25D+00  1.24D+00 -3.37D-01  4.03D-01
                    CP:  1.25D-01
 CoulSu:  requested number of processors reduced to:  11 ShMem   1 Linda.
 CoulSu:  requested number of processors reduced to:  11 ShMem   1 Linda.
 E= -3010.12775524634     Delta-E=        0.000335609692 Rises=F Damp=F
 DIIS: error= 3.64D-04 at cycle  17 NSaved=   4.
 NSaved= 4 IEnMin= 3 EnMin= -3010.12809085604     IErMin= 2 ErrMin= 3.60D-04
 ErrMax= 3.64D-04  0.00D+00 EMaxC= 1.00D-01 BMatC= 1.84D-04 BMatP= 1.51D-04
 IDIUse=3 WtCom= 9.96D-01 WtEn= 3.60D-03
 Rare condition: small coef for last iteration:  0.000D+00
 Coeff-Com:  0.235D+01 0.522D+00-0.344D+01 0.156D+01
 Coeff-En:   0.000D+00 0.000D+00 0.000D+00 0.100D+01
 Coeff:      0.235D+01 0.522D+00-0.344D+01 0.156D+01
 Gap=     0.280 Goal=   None    Shift=    0.000
 Gap=     0.277 Goal=   None    Shift=    0.000
 RMSDP=8.98D-05 MaxDP=1.16D-02 DE= 3.36D-04 OVMax= 4.89D-02

 Cycle  18  Pass 1  IDiag  1:
 RMSU=  1.40D-05    CP:  1.89D-01  9.88D-01  9.71D-01  9.97D-01  1.56D+00
                    CP:  1.50D+00  2.35D+00  3.00D+00  3.00D+00  1.78D+00
                    CP:  2.22D+00  1.16D-01 -1.91D-01  3.00D+00  2.49D+00
                    CP: -1.65D+00  3.00D+00
 CoulSu:  requested number of processors reduced to:  11 ShMem   1 Linda.
 CoulSu:  requested number of processors reduced to:  11 ShMem   1 Linda.
 E= -3010.12677728951     Delta-E=        0.000977956831 Rises=F Damp=F
 DIIS: error= 3.08D-04 at cycle  18 NSaved=   5.
 NSaved= 5 IEnMin= 3 EnMin= -3010.12809085604     IErMin= 5 ErrMin= 3.08D-04
 ErrMax= 3.08D-04  0.00D+00 EMaxC= 1.00D-01 BMatC= 1.17D-04 BMatP= 1.51D-04
 IDIUse=3 WtCom= 9.97D-01 WtEn= 3.08D-03
 Rare condition: small coef for last iteration:  0.000D+00
 Coeff-Com: -0.254D+01 0.662D+00 0.148D+01-0.713D+00 0.211D+01
 Coeff-En:   0.000D+00 0.000D+00 0.000D+00 0.000D+00 0.100D+01
 Coeff:     -0.254D+01 0.662D+00 0.148D+01-0.713D+00 0.211D+01
 Gap=     0.278 Goal=   None    Shift=    0.000
 Gap=     0.277 Goal=   None    Shift=    0.000
 RMSDP=3.59D-05 MaxDP=4.90D-03 DE= 9.78D-04 OVMax= 2.26D-02

 Cycle  19  Pass 1  IDiag  1:
 RMSU=  2.34D-05    CP:  1.89D-01  9.88D-01  9.71D-01  9.97D-01  1.57D+00
                    CP:  1.50D+00  2.39D+00  3.00D+00  3.00D+00  1.78D+00
                    CP:  2.38D+00 -1.11D-01 -3.58D-01  3.00D+00  3.00D+00
                    CP: -3.00D+00  3.00D+00  1.80D+00
 CoulSu:  requested number of processors reduced to:  11 ShMem   1 Linda.
 CoulSu:  requested number of processors reduced to:  11 ShMem   1 Linda.
 E= -3010.12678622802     Delta-E=       -0.000008938503 Rises=F Damp=F
 DIIS: error= 2.64D-04 at cycle  19 NSaved=   6.
 NSaved= 6 IEnMin= 3 EnMin= -3010.12809085604     IErMin= 6 ErrMin= 2.64D-04
 ErrMax= 2.64D-04  0.00D+00 EMaxC= 1.00D-01 BMatC= 9.40D-05 BMatP= 1.17D-04
 IDIUse=3 WtCom= 9.97D-01 WtEn= 2.64D-03
 Coeff-Com: -0.895D+01-0.115D+00 0.986D+01-0.452D+01 0.265D+01 0.206D+01
 Coeff-En:   0.000D+00 0.000D+00 0.000D+00 0.000D+00 0.000D+00 0.100D+01
 Coeff:     -0.892D+01-0.115D+00 0.984D+01-0.450D+01 0.265D+01 0.206D+01
 Gap=     0.270 Goal=   None    Shift=    0.000
 Gap=     0.279 Goal=   None    Shift=    0.000
 RMSDP=1.07D-04 MaxDP=1.49D-02 DE=-8.94D-06 OVMax= 5.53D-02

 Cycle  20  Pass 1  IDiag  1:
 RMSU=  4.66D-05    CP:  1.89D-01  9.87D-01  9.71D-01  9.96D-01  1.58D+00
                    CP:  1.55D+00  2.61D+00  3.00D+00  3.00D+00  2.68D+00
                    CP:  3.00D+00  3.60D-01  4.90D-01  3.00D+00  3.00D+00
                    CP: -3.00D+00  3.00D+00  3.00D+00  3.00D+00
 CoulSu:  requested number of processors reduced to:  11 ShMem   1 Linda.
 CoulSu:  requested number of processors reduced to:  11 ShMem   1 Linda.
 E= -3010.12727838551     Delta-E=       -0.000492157496 Rises=F Damp=F
 DIIS: error= 1.90D-04 at cycle  20 NSaved=   7.
 NSaved= 7 IEnMin= 3 EnMin= -3010.12809085604     IErMin= 7 ErrMin= 1.90D-04
 ErrMax= 1.90D-04  0.00D+00 EMaxC= 1.00D-01 BMatC= 6.33D-05 BMatP= 9.40D-05
 IDIUse=3 WtCom= 9.98D-01 WtEn= 1.90D-03
 Coeff-Com: -0.640D+01-0.209D+00 0.704D+01-0.310D+01 0.186D+01 0.133D+01
 Coeff-Com:  0.490D+00
 Coeff-En:   0.000D+00 0.000D+00 0.000D+00 0.000D+00 0.000D+00 0.000D+00
 Coeff-En:   0.100D+01
 Coeff:     -0.639D+01-0.208D+00 0.702D+01-0.309D+01 0.186D+01 0.132D+01
 Coeff:      0.491D+00
 Gap=     0.273 Goal=   None    Shift=    0.000
 Gap=     0.280 Goal=   None    Shift=    0.000
 RMSDP=2.52D-05 MaxDP=3.79D-03 DE=-4.92D-04 OVMax= 1.33D-02

 Cycle  21  Pass 1  IDiag  1:
 Restarting incremental Fock formation.
 CoulSu:  requested number of processors reduced to:  11 ShMem   1 Linda.
 CoulSu:  requested number of processors reduced to:  11 ShMem   1 Linda.
 CoulSu:  requested number of processors reduced to:  11 ShMem   1 Linda.
 E= -3010.12738526735     Delta-E=       -0.000106881836 Rises=F Damp=F
 DIIS: error= 2.04D-04 at cycle  21 NSaved=   8.
 NSaved= 8 IEnMin= 3 EnMin= -3010.12809085604     IErMin= 7 ErrMin= 1.90D-04
 ErrMax= 2.04D-04  0.00D+00 EMaxC= 1.00D-01 BMatC= 5.14D-05 BMatP= 6.33D-05
 IDIUse=3 WtCom= 9.98D-01 WtEn= 1.90D-03
 Coeff-Com: -0.284D+01-0.934D-01 0.304D+01-0.131D+01 0.107D+01 0.335D+00
 Coeff-Com: -0.798D+00 0.160D+01
 Coeff-En:   0.000D+00 0.000D+00 0.000D+00 0.000D+00 0.000D+00 0.000D+00
 Coeff-En:   0.000D+00 0.100D+01
 Coeff:     -0.283D+01-0.932D-01 0.303D+01-0.131D+01 0.107D+01 0.334D+00
 Coeff:     -0.796D+00 0.160D+01
 Gap=     0.276 Goal=   None    Shift=    0.000
 Gap=     0.279 Goal=   None    Shift=    0.000
 RMSDP=2.94D-05 MaxDP=4.59D-03 DE=-1.07D-04 OVMax= 1.43D-02

 Cycle  22  Pass 1  IDiag  1:
 RMSU=  2.94D-05    CP:  1.00D+00
 CoulSu:  requested number of processors reduced to:  11 ShMem   1 Linda.
 CoulSu:  requested number of processors reduced to:  11 ShMem   1 Linda.
 E= -3010.12754369194     Delta-E=       -0.000158424593 Rises=F Damp=F
 DIIS: error= 2.09D-04 at cycle  22 NSaved=   9.
 NSaved= 9 IEnMin= 3 EnMin= -3010.12809085604     IErMin= 7 ErrMin= 1.90D-04
 ErrMax= 2.09D-04  0.00D+00 EMaxC= 1.00D-01 BMatC= 4.21D-05 BMatP= 5.14D-05
 IDIUse=3 WtCom= 9.98D-01 WtEn= 1.90D-03
 Coeff-Com: -0.211D+01-0.326D-01 0.249D+01-0.119D+01 0.602D+00 0.428D+00
 Coeff-Com: -0.408D+00-0.315D+00 0.154D+01
 Coeff-En:   0.000D+00 0.000D+00 0.000D+00 0.000D+00 0.000D+00 0.000D+00
 Coeff-En:   0.000D+00 0.000D+00 0.100D+01
 Coeff:     -0.211D+01-0.326D-01 0.249D+01-0.118D+01 0.601D+00 0.428D+00
 Coeff:     -0.407D+00-0.314D+00 0.154D+01
 Gap=     0.277 Goal=   None    Shift=    0.000
 Gap=     0.279 Goal=   None    Shift=    0.000
 RMSDP=3.92D-05 MaxDP=5.60D-03 DE=-1.58D-04 OVMax= 1.71D-02

 Cycle  23  Pass 1  IDiag  1:
[...]
    30  O(17)              0.00014      -0.08607      -0.03071      -0.02871
    31  O(17)             -0.00319       1.93173       0.68929       0.64436
    32  O(17)              0.00093      -0.56112      -0.20022      -0.18717
    33  Si(29)            -0.00252       2.23925       0.79902       0.74693
    34  Si(29)             0.00779      -6.92718      -2.47179      -2.31066
    35  O(17)              0.00007      -0.04284      -0.01529      -0.01429
    36  O(17)             -0.00012       0.07577       0.02703       0.02527
    37  O(17)             -0.00012       0.07122       0.02541       0.02376
    38  O(17)              0.00048      -0.28961      -0.10334      -0.09660
    39  H(1)              -0.00001      -0.02319      -0.00828      -0.00774
    40  H(1)               0.00000      -0.01543      -0.00551      -0.00515
    41  H(1)               0.00000       0.01653       0.00590       0.00551
    42  H(1)               0.00002       0.08535       0.03045       0.02847
 --------------------------------------------------------
       Center         ----  Spin Dipole Couplings  ----
                      3XX-RR        3YY-RR        3ZZ-RR
 --------------------------------------------------------
     1   Atom        0.016140     -0.007901     -0.008239
     2   Atom        0.000572     -0.001013      0.000441
     3   Atom       -0.000495     -0.000893      0.001388
     4   Atom       -0.000482     -0.001142      0.001623
     5   Atom        0.003152     -0.001711     -0.001441
     6   Atom        0.002519     -0.000732     -0.001786
     7   Atom        0.012256     -0.005671     -0.006585
     8   Atom        0.001387     -0.000360     -0.001027
     9   Atom        0.002513      0.000800     -0.003313
    10   Atom       -0.000028      0.001152     -0.001124
    11   Atom        0.000321     -0.001206      0.000885
    12   Atom       -0.000529     -0.001496      0.002025
    13   Atom        0.001925     -0.003004      0.001079
    14   Atom       -0.006504      0.011008     -0.004505
    15   Atom       -0.000243      0.005807     -0.005564
    16   Atom       -0.001153      0.000049      0.001104
    17   Atom       -0.002054      0.000264      0.001790
    18   Atom       -0.001098     -0.000864      0.001962
    19   Atom        0.012721      0.000905     -0.013626
    20   Atom       -0.007687      0.000268      0.007419
    21   Atom        0.035278     -0.018608     -0.016670
    22   Atom       -0.005727     -0.000735      0.006463
    23   Atom       -0.000648     -0.002378      0.003026
    24   Atom        0.006895     -0.004106     -0.002789
    25   Atom        0.001715     -0.000006     -0.001709
    26   Atom       -0.001699     -0.001431      0.003130
    27   Atom        0.014058      0.014763     -0.028821
    28   Atom       -0.001131     -0.000517      0.001648
    29   Atom        0.018533     -0.061677      0.043144
    30   Atom       -0.024221      0.024348     -0.000126
    31   Atom       -0.011532     -0.003468      0.015000
    32   Atom       -0.003321      0.001539      0.001781
    33   Atom        0.000807      0.000221     -0.001028
    34   Atom       -0.008900     -0.003253      0.012153
    35   Atom       -0.000464     -0.000271      0.000735
    36   Atom       -0.002081     -0.001051      0.003132
    37   Atom        0.001757     -0.000750     -0.001008
    38   Atom       -0.000661      0.002725     -0.002064
    39   Atom       -0.000914      0.001437     -0.000523
    40   Atom       -0.000933     -0.000825      0.001758
    41   Atom        0.000814     -0.000976      0.000162
    42   Atom       -0.000124      0.001235     -0.001110
 --------------------------------------------------------
                        XY            XZ            YZ
 --------------------------------------------------------
     1   Atom        0.002996     -0.001609     -0.000516
     2   Atom       -0.000233      0.001311     -0.000236
     3   Atom       -0.000240      0.001231     -0.000817
     4   Atom        0.000141      0.001572      0.000429
     5   Atom        0.001096      0.001459      0.000241
     6   Atom        0.004743      0.003791      0.002447
     7   Atom        0.004255     -0.000220     -0.000259
     8   Atom       -0.001626      0.000886     -0.000500
     9   Atom       -0.004874      0.000220     -0.000178
    10   Atom       -0.002321      0.001196     -0.001504
    11   Atom       -0.000797     -0.001992      0.001012
    12   Atom       -0.000049     -0.001814      0.000173
    13   Atom        0.000293     -0.004417     -0.000548
    14   Atom       -0.006168      0.000511      0.004911
    15   Atom       -0.009504     -0.003996      0.001173
    16   Atom       -0.000082     -0.000437      0.001709
    17   Atom        0.000694      0.001238      0.002878
    18   Atom        0.000086      0.000045      0.001417
    19   Atom        0.007266      0.009564     -0.016132
    20   Atom       -0.001264     -0.000226     -0.011811
    21   Atom       -0.008786      0.007919     -0.002495
    22   Atom       -0.006417      0.000122      0.001754
    23   Atom       -0.000479      0.003205     -0.000725
    24   Atom        0.002522      0.004254      0.001094
    25   Atom       -0.003290      0.001702     -0.001285
    26   Atom       -0.001446     -0.002313      0.001092
    27   Atom        0.002106      0.012206     -0.018202
    28   Atom       -0.001519     -0.001895      0.000154
    29   Atom        1.054192      0.312294     -1.190180
    30   Atom        0.020835      0.005834      0.016635
    31   Atom        0.007082      0.006357     -0.041840
    32   Atom        0.003038      0.002496      0.006478
    33   Atom        0.005254      0.003539      0.001216
    34   Atom       -0.002183     -0.002551      0.009587
    35   Atom       -0.002538     -0.002642      0.002605
    36   Atom       -0.000275     -0.001522      0.000729
    37   Atom        0.001627      0.001115      0.000354
    38   Atom        0.002548     -0.000063      0.001346
    39   Atom       -0.001681     -0.001055      0.001967
    40   Atom       -0.000134     -0.000566      0.000736
    41   Atom        0.000924      0.001817      0.000760
    42   Atom        0.001598      0.000277      0.000414
 --------------------------------------------------------


 ---------------------------------------------------------------------------------
              Anisotropic Spin Dipole Couplings in Principal Axis System
 ---------------------------------------------------------------------------------

       Atom             a.u.   MegaHertz   Gauss  10(-4) cm-1        Axes

              Baa    -0.0086    -4.603    -1.643    -1.535 -0.0313  0.6615  0.7493
     1 H(1)   Bbb    -0.0080    -4.263    -1.521    -1.422 -0.1358  0.7399 -0.6589
              Bcc     0.0166     8.867     3.164     2.958  0.9902  0.1224 -0.0666
 
              Baa    -0.0011    -0.561    -0.200    -0.187  0.0539  0.9925  0.1096
     2 H(1)   Bbb    -0.0008    -0.430    -0.153    -0.143 -0.6925 -0.0419  0.7202
              Bcc     0.0019     0.991     0.354     0.331  0.7194 -0.1147  0.6851
 
              Baa    -0.0013    -0.669    -0.239    -0.223 -0.5376  0.7017  0.4676
     3 H(1)   Bbb    -0.0010    -0.517    -0.185    -0.173  0.7327  0.6632 -0.1529
              Bcc     0.0022     1.186     0.423     0.396  0.4174 -0.2604  0.8706
 
              Baa    -0.0014    -0.725    -0.259    -0.242  0.7735  0.4261 -0.4692
     4 H(1)   Bbb    -0.0012    -0.618    -0.221    -0.206 -0.4302  0.8966  0.1050
              Bcc     0.0025     1.343     0.479     0.448  0.4654  0.1206  0.8768
 
              Baa    -0.0020    -1.059    -0.378    -0.353 -0.3082  0.8334  0.4587
     5 H(1)   Bbb    -0.0018    -0.971    -0.346    -0.324 -0.1347 -0.5156  0.8462
              Bcc     0.0038     2.030     0.724     0.677  0.9417  0.1990  0.2711
 
              Baa    -0.0042    -2.254    -0.804    -0.752  0.6686 -0.6052 -0.4321
     6 H(1)   Bbb    -0.0038    -2.007    -0.716    -0.669 -0.0281 -0.6012  0.7986
              Bcc     0.0080     4.261     1.520     1.421  0.7431  0.5218  0.4189
 
              Baa    -0.0068    -3.636    -1.297    -1.213 -0.1542  0.7258  0.6705
     7 H(1)   Bbb    -0.0064    -3.417    -1.219    -1.140  0.1574 -0.6519  0.7418
              Bcc     0.0132     7.053     2.517     2.353  0.9754  0.2199 -0.0137
 
              Baa    -0.0013    -0.719    -0.256    -0.240  0.5547  0.6499 -0.5196
     8 H(1)   Bbb    -0.0013    -0.690    -0.246    -0.230  0.0825  0.5784  0.8116
              Bcc     0.0026     1.409     0.503     0.470  0.8280 -0.4930  0.2672
 
              Baa    -0.0033    -1.773    -0.632    -0.591 -0.1273 -0.1079  0.9860
     9 H(1)   Bbb    -0.0033    -1.756    -0.627    -0.586  0.6307  0.7584  0.1644
              Bcc     0.0066     3.529     1.259     1.177  0.7655 -0.6428  0.0285
 
              Baa    -0.0019    -1.010    -0.360    -0.337 -0.4607  0.0852  0.8834
    10 H(1)   Bbb    -0.0018    -0.975    -0.348    -0.325  0.6789  0.6749  0.2890
              Bcc     0.0037     1.985     0.708     0.662 -0.5716  0.7329 -0.3688
 
              Baa    -0.0016    -0.862    -0.308    -0.288 -0.0229  0.9202 -0.3907
    11 H(1)   Bbb    -0.0014    -0.743    -0.265    -0.248  0.7811  0.2604  0.5676
              Bcc     0.0030     1.605     0.573     0.535 -0.6240  0.2922  0.7247
 
              Baa    -0.0015    -0.815    -0.291    -0.272 -0.4657  0.8399 -0.2788
    12 H(1)   Bbb    -0.0014    -0.772    -0.276    -0.258  0.7560  0.5413  0.3680
              Bcc     0.0030     1.587     0.566     0.529 -0.4600  0.0394  0.8870
 
              Baa    -0.0032    -1.709    -0.610    -0.570  0.3747  0.7888  0.4873
    13 H(1)   Bbb    -0.0028    -1.480    -0.528    -0.494 -0.5620  0.6112 -0.5573
              Bcc     0.0060     3.189     1.138     1.064  0.7375  0.0650 -0.6723
 
              Baa    -0.0094    -5.030    -1.795    -1.678  0.8252  0.3547 -0.4396
    14 H(1)   Bbb    -0.0046    -2.481    -0.885    -0.827  0.4943 -0.0769  0.8659
              Bcc     0.0141     7.510     2.680     2.505 -0.2733  0.9318  0.2388
 
              Baa    -0.0092    -4.920    -1.756    -1.641  0.6824  0.3829  0.6227
    15 H(1)   Bbb    -0.0041    -2.199    -0.785    -0.733 -0.4198 -0.4920  0.7627
              Bcc     0.0133     7.119     2.540     2.375 -0.5984  0.7819  0.1750
 
              Baa    -0.0014    -0.746    -0.266    -0.249  0.6900 -0.5358  0.4866
    16 H(1)   Bbb    -0.0010    -0.540    -0.193    -0.180  0.7151  0.6086 -0.3438
              Bcc     0.0024     1.286     0.459     0.429 -0.1119  0.5852  0.8031
 
              Baa    -0.0024    -1.304    -0.465    -0.435  0.9054  0.1777 -0.3856
    17 H(1)   Bbb    -0.0019    -0.998    -0.356    -0.333 -0.3657  0.7877 -0.4958
              Bcc     0.0043     2.302     0.821     0.768  0.2156  0.5899  0.7782
 
              Baa    -0.0015    -0.780    -0.278    -0.260 -0.1696  0.9114 -0.3749
    18 H(1)   Bbb    -0.0011    -0.581    -0.207    -0.194  0.9853  0.1489 -0.0838
              Bcc     0.0026     1.361     0.486     0.454  0.0205  0.3836  0.9233
 
              Baa    -0.0276    -3.705    -1.322    -1.236 -0.2848  0.5259  0.8014
    19 C(13)  Bbb     0.0112     1.501     0.536     0.501 -0.1601  0.7982 -0.5807
              Bcc     0.0164     2.204     0.787     0.735  0.9451  0.2937  0.1431
 
              Baa    -0.0093    -4.970    -1.773    -1.658  0.5797  0.6620  0.4751
    20 H(1)   Bbb    -0.0069    -3.672    -1.310    -1.225  0.8145 -0.4536 -0.3618
              Bcc     0.0162     8.642     3.084     2.883  0.0240 -0.5967  0.8021
 
              Baa    -0.0206     2.181     0.778     0.727  0.0846  0.9079  0.4106
    21 Si(29) Bbb    -0.0174     1.841     0.657     0.614 -0.2002 -0.3882  0.8996
              Bcc     0.0379    -4.022    -1.435    -1.342  0.9761 -0.1583  0.1489
 
              Baa    -0.0102     1.081     0.386     0.361  0.8199  0.5688 -0.0659
    22 Si(29) Bbb     0.0031    -0.329    -0.117    -0.110 -0.5493  0.7488 -0.3711
              Bcc     0.0071    -0.752    -0.268    -0.251 -0.1617  0.3404  0.9263
 
              Baa    -0.0025    -0.342    -0.122    -0.114  0.7183  0.6104 -0.3339
    23 C(13)  Bbb    -0.0024    -0.327    -0.117    -0.109 -0.4852  0.7834  0.3884
              Bcc     0.0050     0.669     0.239     0.223  0.4987 -0.1170  0.8589
 
              Baa    -0.0047    -0.635    -0.226    -0.212 -0.0494  0.9125 -0.4061
    24 C(13)  Bbb    -0.0043    -0.582    -0.208    -0.194 -0.3996  0.3546  0.8453
              Bcc     0.0091     1.217     0.434     0.406  0.9154  0.2040  0.3471
 
              Baa    -0.0025    -0.342    -0.122    -0.114  0.6380  0.7586 -0.1322
    25 C(13)  Bbb    -0.0024    -0.321    -0.114    -0.107 -0.1549  0.2946  0.9430
              Bcc     0.0049     0.663     0.236     0.221  0.7543 -0.5812  0.3055
 
              Baa    -0.0032    -0.433    -0.154    -0.144  0.8194  0.5349  0.2063
    26 C(13)  Bbb    -0.0013    -0.168    -0.060    -0.056 -0.4189  0.8042 -0.4216
              Bcc     0.0045     0.601     0.214     0.200 -0.3914  0.2590  0.8830
 
              Baa    -0.0383    -5.135    -1.832    -1.713 -0.2272  0.3242  0.9183
    27 C(13)  Bbb     0.0161     2.154     0.769     0.718  0.9036  0.4218  0.0747
              Bcc     0.0222     2.981     1.064     0.995 -0.3631  0.8467 -0.3888
 
              Baa    -0.0028    -0.381    -0.136    -0.127  0.8024  0.5030  0.3213
    28 C(13)  Bbb     0.0000     0.001     0.000     0.000 -0.3317  0.8234 -0.4605
              Bcc     0.0028     0.380     0.136     0.127 -0.4962  0.2629  0.8275
 
              Baa    -1.7639    53.303    19.020    17.780 -0.4975  0.6825  0.5355
    29 Cr(53) Bbb     0.3389   -10.242    -3.655    -3.416  0.7539  0.0348  0.6561
              Bcc     1.4250   -43.061   -15.365   -14.364  0.4291  0.7301 -0.5318
 
              Baa    -0.0319     2.311     0.825     0.771  0.9367 -0.3501  0.0113
    30 O(17)  Bbb    -0.0079     0.571     0.204     0.191 -0.1510 -0.3744  0.9149
              Bcc     0.0398    -2.882    -1.029    -0.961  0.3160  0.8586  0.4036
 
              Baa    -0.0402     2.911     1.039     0.971 -0.3144  0.7389  0.5960
    31 O(17)  Bbb    -0.0084     0.607     0.217     0.202  0.9493  0.2505  0.1901
              Bcc     0.0486    -3.518    -1.255    -1.173  0.0088 -0.6255  0.7802
 
              Baa    -0.0051     0.369     0.132     0.123 -0.5497  0.6985 -0.4581
    32 O(17)  Bbb    -0.0042     0.307     0.110     0.103  0.7815  0.2363 -0.5775
              Bcc     0.0093    -0.676    -0.241    -0.226  0.2951  0.6755  0.6757
 
              Baa    -0.0055     0.579     0.206     0.193  0.7110 -0.5699 -0.4118
    33 Si(29) Bbb    -0.0018     0.187     0.067     0.062  0.0233 -0.5663  0.8239
              Bcc     0.0072    -0.766    -0.273    -0.255  0.7028  0.5954  0.3894
 
              Baa    -0.0097     1.029     0.367     0.343  0.9005  0.4269 -0.0822
    34 Si(29) Bbb    -0.0075     0.790     0.282     0.264 -0.4168  0.7940 -0.4426
              Bcc     0.0172    -1.820    -0.649    -0.607 -0.1237  0.4328  0.8930
 
              Baa    -0.0029     0.211     0.075     0.070  0.7658  0.6352  0.1008
    35 O(17)  Bbb    -0.0023     0.167     0.060     0.056  0.3487 -0.5418  0.7648
              Bcc     0.0052    -0.379    -0.135    -0.126 -0.5404  0.5505  0.6364
 
              Baa    -0.0025     0.181     0.064     0.060  0.9656  0.0560  0.2539
    36 O(17)  Bbb    -0.0012     0.085     0.030     0.028 -0.0122  0.9852 -0.1710
              Bcc     0.0037    -0.266    -0.095    -0.089 -0.2597  0.1620  0.9520
 
              Baa    -0.0016     0.119     0.042     0.040 -0.5014  0.7231  0.4750
    37 O(17)  Bbb    -0.0013     0.091     0.032     0.030 -0.0093 -0.5535  0.8328
              Bcc     0.0029    -0.210    -0.075    -0.070  0.8651  0.4132  0.2843
 
              Baa    -0.0028     0.206     0.073     0.069  0.5056 -0.4144  0.7568
    38 O(17)  Bbb    -0.0015     0.106     0.038     0.035  0.7378 -0.2471 -0.6282
              Bcc     0.0043    -0.311    -0.111    -0.104  0.4473  0.8759  0.1808
 
              Baa    -0.0018    -0.961    -0.343    -0.320  0.8982  0.2444  0.3653
    39 H(1)   Bbb    -0.0017    -0.928    -0.331    -0.309 -0.1658 -0.5812  0.7967
              Bcc     0.0035     1.889     0.674     0.630 -0.4070  0.7762  0.4815
 
              Baa    -0.0011    -0.562    -0.200    -0.187  0.8913 -0.3612  0.2740
    40 H(1)   Bbb    -0.0010    -0.540    -0.193    -0.180  0.4115  0.8982 -0.1545
              Bcc     0.0021     1.102     0.393     0.368 -0.1903  0.2505  0.9492
 
              Baa    -0.0014    -0.731    -0.261    -0.244 -0.5738  0.7610  0.3027
    41 H(1)   Bbb    -0.0014    -0.721    -0.257    -0.240 -0.3709 -0.5709  0.7325
              Bcc     0.0027     1.452     0.518     0.484  0.7302  0.3080  0.6098
 
              Baa    -0.0012    -0.632    -0.225    -0.211 -0.6286  0.2920  0.7208
    42 H(1)   Bbb    -0.0012    -0.629    -0.224    -0.210  0.5536 -0.4829  0.6785
              Bcc     0.0024     1.261     0.450     0.421  0.5462  0.8255  0.1419
 

 ---------------------------------------------------------------------------------

 No NMR shielding tensors so no spin-rotation constants.
 Leave Link  601 at Mon Jul 17 06:33:44 2017, MaxMem=    33554432 cpu:        48.3
 (Enter /sw/chem/g09/l9999.exe)
 1\1\GINC-NODE74\FOpt\UwB97XD\Gen\C7H23Cr1O7Si4(2)\CRAIGV\17-Jul-2017\0
 \\#p opt=modredundant wb97xd/gen nosymm scf(maxcycles=1000)\\Title Car
 d Required\\0,2\H,-2.8353483152,3.9643967027,2.8155786261\H,3.64694005
 98,3.7888980121,6.6135978805\H,2.1012390447,3.1133688585,7.1401488124\
 H,2.2989178275,4.863042014,7.00267415\H,3.7850844691,5.3271121572,3.91
 23640199\H,2.2973643658,6.2445175856,4.1253562499\H,2.5065996211,5.193
 5250283,2.7138831883\H,3.7218824176,2.1295118556,4.1072123794\H,2.4416
 215937,2.2379382097,2.8942085987\H,2.1638648978,1.3486830194,4.4030742
 48\H,-3.2408479236,5.6048641863,5.9748583487\H,-2.3864408068,4.2977134
 851,6.8045621306\H,-3.0299557814,4.0308908687,5.1923223493\H,-0.574139
 3813,7.1185577266,3.3438435393\H,-2.181929353,6.3674688362,3.119511687
 \H,-0.6535549379,7.3934142203,6.4800217036\H,0.9207969431,6.8652847031
 ,5.8836923501\H,0.1676606699,6.0232293691,7.2440133807\C,0.1246244311,
 3.8457736629,4.5607557444\H,-0.3540491855,2.8975654198,4.8227476072\Si
 ,1.9868164787,3.8183311686,4.750535029\Si,-0.9087071046,5.3534276107,5
 .0982799892\C,2.5624284449,3.9068094868,6.5474130779\C,2.7002268004,5.
 2869938724,3.7875045507\C,2.6428783693,2.2293561319,3.9685414601\C,-2.
 548106109,4.7728165914,5.8345688925\C,-1.135470134,6.1800951298,3.3850
 373744\C,-0.0297321992,6.5173653218,6.2908792195\Cr,-0.272044673,4.521
 2434769,2.7669990347\O,0.5725776021,4.1301129188,1.1615643136\O,-2.066
 5883087,3.5978424217,2.3713439569\O,-1.0934754245,2.2312093188,0.33512
 25214\Si,-2.3333753883,2.2607879007,1.366798352\Si,0.3730293438,3.0100
 233464,0.0253664628\O,1.528661,1.824193,-0.017492\O,0.3296,3.677299,-1
 .481629\O,-3.79819,2.422088,0.623798\O,-2.438175,0.962776,2.368284\H,1
 .472018,1.113006,0.626407\H,0.721006,3.163209,-2.193283\H,-3.813801,2.
 949512,-0.179499\H,-3.05842,0.287818,2.079215\\Version=ES64L-G09RevD.0
 1\HF=-3010.1432469\S2=0.766807\S2-1=0.\S2A=0.750204\RMSD=1.305e-09\RMS
 F=1.251e-03\Dipole=-1.3357129,-0.8370681,0.1745736\Quadrupole=5.753099
 ,-9.0819564,3.3288574,-7.7978759,-2.3200596,2.0276271\PG=C01 [X(C7H23C
 r1O7Si4)]\\@


 A COMPLEXITY IS MERELY A DISARRANGEMENT OF SIMPLICITIES.

                                    -- G. O. ABELL IN "EXPLORATION OF THE UNIVERSE"
 Job cpu time:       6 days 12 hours 24 minutes 26.3 seconds.
 File lengths (MBytes):  RWF=    309 Int=      0 D2E=      0 Chk=     27 Scr=      1
 Normal termination of Gaussian 09 at Mon Jul 17 06:33:45 2017.
561971.301u 1095.101s 18:11:08.86 860.0%	0+0k 55944+64627024io 2pf+0w
