 Entering Gaussian System, Link 0=g09
 Input=SiVinylFrozenOpt2.gjf
 Output=SiVinylFrozenOpt2.log
 Initial command:
 /share/apps/gaussian09/g09/l1.exe /state/partition1/311747.tatras.cnsi.ucsb.edu/Gau-21026.inp -scrdir=/state/partition1/311747.tatras.cnsi.ucsb.edu/
 Entering Link 1 = /share/apps/gaussian09/g09/l1.exe PID=     21027.
  
 Copyright (c) 1988,1990,1992,1993,1995,1998,2003,2009,2011,
            Gaussian, Inc.  All Rights Reserved.
  
 This is part of the Gaussian(R) 09 program.  It is based on
 the Gaussian(R) 03 system (copyright 2003, Gaussian, Inc.),
 the Gaussian(R) 98 system (copyright 1998, Gaussian, Inc.),
 the Gaussian(R) 94 system (copyright 1995, Gaussian, Inc.),
 the Gaussian 92(TM) system (copyright 1992, Gaussian, Inc.),
 the Gaussian 90(TM) system (copyright 1990, Gaussian, Inc.),
 the Gaussian 88(TM) system (copyright 1988, Gaussian, Inc.),
 the Gaussian 86(TM) system (copyright 1986, Carnegie Mellon
 University), and the Gaussian 82(TM) system (copyright 1983,
 Carnegie Mellon University). Gaussian is a federally registered
 trademark of Gaussian, Inc.
  
 This software contains proprietary and confidential information,
 including trade secrets, belonging to Gaussian, Inc.
  
 This software is provided under written license and may be
 used, copied, transmitted, or stored only in accord with that
 written license.
  
 The following legend is applicable only to US Government
 contracts under FAR:
  
                    RESTRICTED RIGHTS LEGEND
  
 Use, reproduction and disclosure by the US Government is
 subject to restrictions as set forth in subparagraphs (a)
 and (c) of the Commercial Computer Software - Restricted
 Rights clause in FAR 52.227-19.
  
 Gaussian, Inc.
 340 Quinnipiac St., Bldg. 40, Wallingford CT 06492
  
  
 ---------------------------------------------------------------
 Warning -- This program may not be used in any manner that
 competes with the business of Gaussian, Inc. or will provide
 assistance to any competitor of Gaussian, Inc.  The licensee
 of this program is prohibited from giving any competitor of
 Gaussian, Inc. access to this program.  By using this program,
 the user acknowledges that Gaussian, Inc. is engaged in the
 business of creating and licensing software in the field of
 computational chemistry and represents and warrants to the
 licensee that it is not a competitor of Gaussian, Inc. and that
 it will not use this program in any manner prohibited above.
 ---------------------------------------------------------------
  

 Cite this work as:
 Gaussian 09, Revision C.01,
 M. J. Frisch, G. W. Trucks, H. B. Schlegel, G. E. Scuseria, 
 M. A. Robb, J. R. Cheeseman, G. Scalmani, V. Barone, B. Mennucci, 
 G. A. Petersson, H. Nakatsuji, M. Caricato, X. Li, H. P. Hratchian, 
 A. F. Izmaylov, J. Bloino, G. Zheng, J. L. Sonnenberg, M. Hada, 
 M. Ehara, K. Toyota, R. Fukuda, J. Hasegawa, M. Ishida, T. Nakajima, 
 Y. Honda, O. Kitao, H. Nakai, T. Vreven, J. A. Montgomery, Jr., 
 J. E. Peralta, F. Ogliaro, M. Bearpark, J. J. Heyd, E. Brothers, 
 K. N. Kudin, V. N. Staroverov, T. Keith, R. Kobayashi, J. Normand, 
 K. Raghavachari, A. Rendell, J. C. Burant, S. S. Iyengar, J. Tomasi, 
 M. Cossi, N. Rega, J. M. Millam, M. Klene, J. E. Knox, J. B. Cross, 
 V. Bakken, C. Adamo, J. Jaramillo, R. Gomperts, R. E. Stratmann, 
 O. Yazyev, A. J. Austin, R. Cammi, C. Pomelli, J. W. Ochterski, 
 R. L. Martin, K. Morokuma, V. G. Zakrzewski, G. A. Voth, 
 P. Salvador, J. J. Dannenberg, S. Dapprich, A. D. Daniels, 
 O. Farkas, J. B. Foresman, J. V. Ortiz, J. Cioslowski, 
 and D. J. Fox, Gaussian, Inc., Wallingford CT, 2010.
 
 ******************************************
 Gaussian 09:  EM64L-G09RevC.01 23-Sep-2011
                13-May-2017 
 ******************************************
 %nprocshared=12
 Will use up to   12 processors via shared memory.
 ----------------------------------------------------------------------
 #p opt=(modredundant,tight) int=grid=ultrafine wb97xd/gen nosymm geom=
 connectivity
 ----------------------------------------------------------------------
 1/7=10,14=-1,18=120,19=15,26=3,38=1,57=2/1,3;
 2/9=110,12=2,15=1,17=6,18=5,40=1/2;
 3/5=7,11=2,16=1,25=1,30=1,71=1,74=-58,75=-5/1,2,3;
 4//1;
 5/5=2,38=5/2;
 6/7=2,8=2,9=2,10=2,28=1/1;
 7/30=1/1,2,3,16;
 1/7=10,14=-1,18=20,19=15/3(2);
 2/9=110,15=1/2;
 99//99;
 2/9=110,15=1/2;
 3/5=7,6=1,11=2,16=1,25=1,30=1,71=1,74=-58,75=-5,82=7/1,2,3;
 4/5=5,16=3/1;
 5/5=2,38=5/2;
 7/30=1/1,2,3,16;
 1/7=10,14=-1,18=20,19=15/3(-5);
 2/9=110,15=1/2;
 6/7=2,8=2,9=2,10=2,19=2,28=1/1;
 99/9=1/99;
 Leave Link    1 at Sat May 13 17:40:09 2017, MaxMem=          0 cpu:       0.6
 (Enter /share/apps/gaussian09/g09/l101.exe)
 --------------------
 TS[F3SiO - H - C2H3]
 --------------------
 Charge =  0 Multiplicity = 2
 Symbolic Z-Matrix:
 Si                   -1.82543   0.27488  -1.26132 
 O                    -1.27952   1.12909  -0.00342 
 F                    -1.27809  -1.24539  -1.23467 
 F                    -1.32747   0.97289  -2.61587 
 F                    -3.43667   0.22601  -1.32645 
 H                    -0.65436   2.08092   0.62364 
 C                    -0.05776   3.08874   1.18788 
 C                     0.26321   3.86987   2.21006 
 H                     0.02347   3.41565   0.14255 
 H                     0.63185   4.89621   2.07996 
 H                     0.18199   3.54296   3.25539 
 
 The following ModRedundant input section has been read:
 X       5    *    F                                                           
 X       3    *    F                                                           
 X       4    *    F                                                           
 B       2       6 F                                                           
 B       6       7 F                                                           
 NAtoms=     11 NQM=        0 NQMF=       0 NMMI=     11 NMMIF=      0
                NMic=       0 NMicF=      0.
                    Isotopes and Nuclear Properties:
 (Nuclear quadrupole moments (NQMom) in fm**2, nuclear magnetic moments (NMagM)
  in nuclear magnetons)

  Atom         1           2           3           4           5           6           7           8           9          10
 IAtWgt=          28          16          19          19          19           1          12          12           1           1
 AtmWgt=  27.9769284  15.9949146  18.9984033  18.9984033  18.9984033   1.0078250  12.0000000  12.0000000   1.0078250   1.0078250
 NucSpn=           0           0           1           1           1           1           0           0           1           1
 AtZEff=   0.0000000   0.0000000   0.0000000   0.0000000   0.0000000   0.0000000   0.0000000   0.0000000   0.0000000   0.0000000
 NQMom=    0.0000000   0.0000000   0.0000000   0.0000000   0.0000000   0.0000000   0.0000000   0.0000000   0.0000000   0.0000000
 NMagM=    0.0000000   0.0000000   2.6288670   2.6288670   2.6288670   2.7928460   0.0000000   0.0000000   2.7928460   2.7928460

  Atom        11
 IAtWgt=           1
 AtmWgt=   1.0078250
 NucSpn=           1
 AtZEff=   0.0000000
 NQMom=    0.0000000
 NMagM=    2.7928460
 Leave Link  101 at Sat May 13 17:40:10 2017, MaxMem=   33554432 cpu:       1.0
 (Enter /share/apps/gaussian09/g09/l103.exe)

 GradGradGradGradGradGradGradGradGradGradGradGradGradGradGradGradGradGrad
 Berny optimization.
 Initialization pass.
                           ----------------------------
                           !    Initial Parameters    !
                           ! (Angstroms and Degrees)  !
 --------------------------                            --------------------------
 ! Name  Definition              Value          Derivative Info.                !
 --------------------------------------------------------------------------------
 ! X3    R(3,-1)                -1.2781         Frozen                          !
 ! Y3    R(3,-2)                -1.2454         Frozen                          !
 ! Z3    R(3,-3)                -1.2347         Frozen                          !
 ! X4    R(4,-1)                -1.3275         Frozen                          !
 ! Y4    R(4,-2)                 0.9729         Frozen                          !
 ! Z4    R(4,-3)                -2.6159         Frozen                          !
 ! X5    R(5,-1)                -3.4367         Frozen                          !
 ! Y5    R(5,-2)                 0.226          Frozen                          !
 ! Z5    R(5,-3)                -1.3265         Frozen                          !
 ! R1    R(1,2)                  1.6156         estimate D2E/DX2                !
 ! R2    R(1,3)                  1.616          estimate D2E/DX2                !
 ! R3    R(1,4)                  1.6031         estimate D2E/DX2                !
 ! R4    R(1,5)                  1.6133         estimate D2E/DX2                !
 ! R5    R(2,6)                  1.3            Frozen                          !
 ! R6    R(6,7)                  1.3            Frozen                          !
 ! R7    R(7,8)                  1.3259         estimate D2E/DX2                !
 ! R8    R(7,9)                  1.0983         estimate D2E/DX2                !
 ! R9    R(8,10)                 1.0983         estimate D2E/DX2                !
 ! R10   R(8,11)                 1.0983         estimate D2E/DX2                !
 ! A1    A(2,1,3)              111.7234         estimate D2E/DX2                !
 ! A2    A(2,1,4)              108.8269         estimate D2E/DX2                !
 ! A3    A(2,1,5)              112.6394         estimate D2E/DX2                !
 ! A4    A(3,1,4)              108.5625         estimate D2E/DX2                !
 ! A5    A(3,1,5)              108.0856         estimate D2E/DX2                !
 ! A6    A(4,1,5)              106.816          estimate D2E/DX2                !
 ! A7    A(1,2,6)              157.6981         estimate D2E/DX2                !
 ! A8    A(6,7,8)              154.4778         estimate D2E/DX2                !
 ! A9    A(6,7,9)               81.4656         estimate D2E/DX2                !
 ! A10   A(8,7,9)              122.718          estimate D2E/DX2                !
 ! A11   A(7,8,10)             122.7159         estimate D2E/DX2                !
 ! A12   A(7,8,11)             122.718          estimate D2E/DX2                !
 ! A13   A(10,8,11)            114.5661         estimate D2E/DX2                !
 ! A14   L(2,6,7,9,-1)         176.6284         estimate D2E/DX2                !
 ! A15   L(2,6,7,9,-2)         177.1956         estimate D2E/DX2                !
 ! D1    D(3,1,2,6)            119.8603         estimate D2E/DX2                !
 ! D2    D(4,1,2,6)              0.0            estimate D2E/DX2                !
 ! D3    D(5,1,2,6)           -118.2532         estimate D2E/DX2                !
 ! D4    D(1,2,7,8)            164.0306         estimate D2E/DX2                !
 ! D5    D(1,2,7,9)              4.529          estimate D2E/DX2                !
 ! D6    D(6,7,8,10)          -159.416          estimate D2E/DX2                !
 ! D7    D(6,7,8,11)            20.5844         estimate D2E/DX2                !
 ! D8    D(9,7,8,10)            -0.0002         estimate D2E/DX2                !
 ! D9    D(9,7,8,11)          -179.9998         estimate D2E/DX2                !
 --------------------------------------------------------------------------------
 Trust Radius=3.00D-01 FncErr=1.00D-07 GrdErr=1.00D-06
 Number of steps in this run=     53 maximum allowed number of steps=    100.
 GradGradGradGradGradGradGradGradGradGradGradGradGradGradGradGradGradGrad

 Leave Link  103 at Sat May 13 17:40:10 2017, MaxMem=   33554432 cpu:       0.1
 (Enter /share/apps/gaussian09/g09/l202.exe)
                          Input orientation:                          
 ---------------------------------------------------------------------
 Center     Atomic      Atomic             Coordinates (Angstroms)
 Number     Number       Type             X           Y           Z
 ---------------------------------------------------------------------
      1         14           0       -1.825430    0.274877   -1.261320
      2          8           0       -1.279517    1.129089   -0.003417
      3          9           0       -1.278088   -1.245385   -1.234675
      4          9           0       -1.327473    0.972893   -2.615868
      5          9           0       -3.436673    0.226010   -1.326451
      6          1           0       -0.654356    2.080917    0.623637
      7          6           0       -0.057761    3.088741    1.187875
      8          6           0        0.263214    3.869872    2.210061
      9          1           0        0.023470    3.415654    0.142547
     10          1           0        0.631848    4.896211    2.079964
     11          1           0        0.181987    3.542958    3.255389
 ---------------------------------------------------------------------
                    Distance matrix (angstroms):
                    1          2          3          4          5
     1  Si   0.000000
     2  O    1.615555   0.000000
     3  F    1.616010   2.674720   0.000000
     4  F    1.603118   2.617556   2.613597   0.000000
     5  F    1.613299   2.686874   2.613985   2.582471   0.000000
     6  H    2.861164   1.300000   3.860913   3.489297   3.871022
     7  C    4.128080   2.598481   5.112983   4.534032   5.092555
     8  C    5.416355   3.845958   6.356703   5.849133   6.282818
     9  H    3.905606   2.635804   5.031509   3.924408   4.929947
    10  H    6.209599   4.710096   7.235599   6.425122   7.068755
    11  H    5.925431   4.310751   6.724635   6.584479   6.714916
                    6          7          8          9         10
     6  H    0.000000
     7  C    1.300000   0.000000
     8  C    2.561061   1.325916   0.000000
     9  H    1.572393   1.098263   2.130353   0.000000
    10  H    3.420685   2.130336   1.098267   2.513117   0.000000
    11  H    3.124604   2.130353   1.098263   3.119474   1.848052
                   11
    11  H    0.000000
 Symmetry turned off by external request.
 Stoichiometry    C2H4F3OSi(2)
 Framework group  C1[X(C2H4F3OSi)]
 Deg. of freedom    27
 Full point group                 C1      NOp   1
 Rotational constants (GHZ):      3.8446911      0.7740975      0.7709385
 Leave Link  202 at Sat May 13 17:40:10 2017, MaxMem=   33554432 cpu:       0.1
 (Enter /share/apps/gaussian09/g09/l301.exe)
 General basis read from cards:  (5D, 7F)
 Centers:   6  9 10 11  1  2  7  8
 TZVP
 ****
 Centers:   3  4  5
 6-31G
 ****
 Ernie: Thresh=  0.10000D-02 Tol=  0.10000D-05 Strict=F.
 Integral buffers will be    131072 words long.
 Raffenetti 2 integral format.
 Two-electron integral symmetry is turned off.
   130 basis functions,   250 primitive gaussians,   134 cartesian basis functions
    33 alpha electrons       32 beta electrons
       nuclear repulsion energy       377.3919528811 Hartrees.
 IExCor= 4639 DFT=T Ex+Corr=wB97XD ExCW=0 ScaHFX=  1.000000
 ScaDFX=  1.000000  1.000000  1.000000  1.000000 ScalE2=  1.000000  1.000000
 IRadAn=      5 IRanWt=     -1 IRanGd=            0 ICorTp=0
  HFx wShort=  0.000000 wLong=  0.200000 cFull=  0.222036 cShort=  0.000000 cLong=  0.777964
  DFx wShort=  0.000000 wLong=  0.200000 cFull=  0.000000 cShort=  0.000000 cLong=  1.000000
 NAtoms=   11 NActive=   11 NUniq=   11 SFac= 1.00D+00 NAtFMM=   60 NAOKFM=F Big=F
 R6Disp: Dispersion energy =        -0.0029085194 Hartrees.
 Nuclear repulsion after empirical dispersion term =      377.3890443618 Hartrees.
 Leave Link  301 at Sat May 13 17:40:10 2017, MaxMem=   33554432 cpu:       0.9
 (Enter /share/apps/gaussian09/g09/l302.exe)
 NPDir=0 NMtPBC=     1 NCelOv=     1 NCel=       1 NClECP=     1 NCelD=      1
         NCelK=      1 NCelE2=     1 NClLst=     1 CellRange=     0.0.
 One-electron integrals computed using PRISM.
 PrsmSu:  requested number of processors reduced to:  10 ShMem   1 Linda.
 NBasis=   130 RedAO= T  NBF=   130
 NBsUse=   130 1.00D-06 NBFU=   130
 Precomputing XC quadrature grid using
 IXCGrd= 2 IRadAn=           5 IRanWt=          -1 IRanGd=           0 AccXCQ= 0.00D+00.
 NRdTot=     924 NPtTot=      249212 NUsed=      255836 NTot=      255868
 NSgBfM=   131   131   131   131   131 NAtAll=    11    11.
 Leave Link  302 at Sat May 13 17:40:10 2017, MaxMem=   33554432 cpu:       3.0
 (Enter /share/apps/gaussian09/g09/l303.exe)
 DipDrv:  MaxL=1.
 Leave Link  303 at Sat May 13 17:40:10 2017, MaxMem=   33554432 cpu:       0.8
 (Enter /share/apps/gaussian09/g09/l401.exe)
 Harris functional with IExCor= 4639 diagonalized for initial guess.
 ExpMin= 7.01D-02 ExpMax= 4.48D+04 ExpMxC= 1.53D+03 IAcc=3 IRadAn=         5 AccDes= 0.00D+00
 HarFok:  IExCor= 4639 AccDes= 0.00D+00 IRadAn=         5 IDoV= 1
 ScaDFX=  1.000000  1.000000  1.000000  1.000000
 FoFCou: FMM=F IPFlag=           0 FMFlag=      100000 FMFlg1=           0
         NFxFlg=           0 DoJE=T BraDBF=F KetDBF=T FulRan=T
         Omega=  0.000000  0.000000  1.000000  0.000000  0.000000 ICntrl=     500 IOpCl=  0
         NMat0=    1 NMatS0=    1 NMatT0=    0 NMatD0=    1 NMtDS0=    0 NMtDT0=    0
         I1Cent=           4 NGrid=           0.
 Symmetry not used in FoFCou.
 Harris En= -721.659679061193    
 Initial guess <Sx>= 0.0000 <Sy>= 0.0000 <Sz>= 0.5000 <S**2>= 0.7500 S= 0.5000
 Leave Link  401 at Sat May 13 17:40:11 2017, MaxMem=   33554432 cpu:       6.9
 (Enter /share/apps/gaussian09/g09/l502.exe)
 UHF open shell SCF:
 Requested convergence on RMS density matrix=1.00D-08 within 128 cycles.
 Requested convergence on MAX density matrix=1.00D-06.
 Requested convergence on             energy=1.00D-06.
 No special actions if energy rises.
 Using DIIS extrapolation, IDIIS=  1040.
 Two-electron integral symmetry not used.
       255724 words used for storage of precomputed grid.
 IEnd=      330172 IEndB=      330172 NGot=    33554432 MDV=    33258991
 LenX=    33258991 LenY=    33240594
 Fock matrices will be formed incrementally for  20 cycles.
 Integral accuracy reduced to 1.0D-05 until final iterations.

 Cycle   1  Pass 0  IDiag  1:
 FoFJK:  IHMeth= 1 ICntrl=     0 DoSepK=T KAlg= 1 I1Cent= 0 FoldK=F
 FoFCou: FMM=F IPFlag=           0 FMFlag=      100000 FMFlg1=           0
         NFxFlg=           0 DoJE=T BraDBF=F KetDBF=F FulRan=T
         Omega=  0.000000  0.000000  1.000000  0.000000  0.000000 ICntrl=     500 IOpCl=  0
         NMat0=    1 NMatS0=    1 NMatT0=    0 NMatD0=    1 NMtDS0=    0 NMtDT0=    0
         I1Cent=           0 NGrid=           0.
 Symmetry not used in FoFCou.
 E= -742.566265456659    
 DIIS: error= 8.05D-02 at cycle   1 NSaved=   1.
 NSaved= 1 IEnMin= 1 EnMin= -742.566265456659     IErMin= 1 ErrMin= 8.05D-02
 ErrMax= 8.05D-02 EMaxC= 1.00D-01 BMatC= 3.34D+00 BMatP= 3.34D+00
 IDIUse=3 WtCom= 1.95D-01 WtEn= 8.05D-01
 Coeff-Com:  0.100D+01
 Coeff-En:   0.100D+01
 Coeff:      0.100D+01
 Gap=     0.465 Goal=   None    Shift=    0.000
 Gap=     0.297 Goal=   None    Shift=    0.000
 GapD=    0.297 DampG=1.000 DampE=0.500 DampFc=0.5000 IDamp=-1.
 Damping current iteration by 5.00D-01
 RMSDP=6.33D-03 MaxDP=1.68D-01              OVMax= 1.30D-01

 Cycle   2  Pass 0  IDiag  1:
 RMSU=  2.23D-03    CP:  9.87D-01
 FoFJK:  IHMeth= 1 ICntrl=     0 DoSepK=T KAlg= 1 I1Cent= 0 FoldK=F
 E= -742.686910583292     Delta-E=       -0.120645126633 Rises=F Damp=T
 DIIS: error= 4.05D-02 at cycle   2 NSaved=   2.
 NSaved= 2 IEnMin= 2 EnMin= -742.686910583292     IErMin= 2 ErrMin= 4.05D-02
 ErrMax= 4.05D-02 EMaxC= 1.00D-01 BMatC= 4.91D-01 BMatP= 3.34D+00
 IDIUse=3 WtCom= 5.95D-01 WtEn= 4.05D-01
 Coeff-Com: -0.399D+00 0.140D+01
 Coeff-En:   0.000D+00 0.100D+01
 Coeff:     -0.237D+00 0.124D+01
 Gap=     0.440 Goal=   None    Shift=    0.000
 Gap=     0.255 Goal=   None    Shift=    0.000
 RMSDP=2.18D-03 MaxDP=7.58D-02 DE=-1.21D-01 OVMax= 5.39D-02

 Cycle   3  Pass 0  IDiag  1:
 RMSU=  1.13D-03    CP:  9.80D-01  1.48D+00
 FoFJK:  IHMeth= 1 ICntrl=     0 DoSepK=T KAlg= 1 I1Cent= 0 FoldK=F
 E= -742.792886667003     Delta-E=       -0.105976083711 Rises=F Damp=F
 DIIS: error= 1.38D-02 at cycle   3 NSaved=   3.
 NSaved= 3 IEnMin= 3 EnMin= -742.792886667003     IErMin= 3 ErrMin= 1.38D-02
 ErrMax= 1.38D-02 EMaxC= 1.00D-01 BMatC= 5.88D-02 BMatP= 4.91D-01
 IDIUse=3 WtCom= 8.62D-01 WtEn= 1.38D-01
 Coeff-Com: -0.173D+00 0.471D+00 0.702D+00
 Coeff-En:   0.000D+00 0.000D+00 0.100D+01
 Coeff:     -0.149D+00 0.406D+00 0.743D+00
 Gap=     0.417 Goal=   None    Shift=    0.000
 Gap=     0.241 Goal=   None    Shift=    0.000
 RMSDP=7.71D-04 MaxDP=3.33D-02 DE=-1.06D-01 OVMax= 2.26D-02

 Cycle   4  Pass 0  IDiag  1:
 RMSU=  3.78D-04    CP:  9.77D-01  1.60D+00  7.39D-01
 FoFJK:  IHMeth= 1 ICntrl=     0 DoSepK=T KAlg= 1 I1Cent= 0 FoldK=F
 E= -742.801773261354     Delta-E=       -0.008886594351 Rises=F Damp=F
 DIIS: error= 3.39D-03 at cycle   4 NSaved=   4.
 NSaved= 4 IEnMin= 4 EnMin= -742.801773261354     IErMin= 4 ErrMin= 3.39D-03
 ErrMax= 3.39D-03 EMaxC= 1.00D-01 BMatC= 3.78D-03 BMatP= 5.88D-02
 IDIUse=3 WtCom= 9.66D-01 WtEn= 3.39D-02
 Coeff-Com: -0.119D-02 0.502D-02 0.197D+00 0.799D+00
 Coeff-En:   0.000D+00 0.000D+00 0.000D+00 0.100D+01
 Coeff:     -0.115D-02 0.485D-02 0.191D+00 0.806D+00
 Gap=     0.417 Goal=   None    Shift=    0.000
 Gap=     0.245 Goal=   None    Shift=    0.000
 RMSDP=1.86D-04 MaxDP=8.16D-03 DE=-8.89D-03 OVMax= 8.99D-03

 Cycle   5  Pass 0  IDiag  1:
 RMSU=  6.24D-05    CP:  9.76D-01  1.60D+00  8.37D-01  9.64D-01
 FoFJK:  IHMeth= 1 ICntrl=     0 DoSepK=T KAlg= 1 I1Cent= 0 FoldK=F
 E= -742.802541276449     Delta-E=       -0.000768015095 Rises=F Damp=F
 DIIS: error= 8.20D-04 at cycle   5 NSaved=   5.
 NSaved= 5 IEnMin= 5 EnMin= -742.802541276449     IErMin= 5 ErrMin= 8.20D-04
 ErrMax= 8.20D-04 EMaxC= 1.00D-01 BMatC= 1.31D-04 BMatP= 3.78D-03
 IDIUse=3 WtCom= 9.92D-01 WtEn= 8.20D-03
 Coeff-Com:  0.778D-02-0.207D-01-0.126D-01 0.761D-01 0.949D+00
 Coeff-En:   0.000D+00 0.000D+00 0.000D+00 0.000D+00 0.100D+01
 Coeff:      0.772D-02-0.205D-01-0.125D-01 0.755D-01 0.950D+00
 Gap=     0.416 Goal=   None    Shift=    0.000
 Gap=     0.245 Goal=   None    Shift=    0.000
 RMSDP=8.07D-05 MaxDP=1.84D-03 DE=-7.68D-04 OVMax= 6.90D-03

 Cycle   6  Pass 0  IDiag  1:
 RMSU=  4.39D-05    CP:  9.76D-01  1.61D+00  8.48D-01  1.05D+00  1.24D+00
 FoFJK:  IHMeth= 1 ICntrl=     0 DoSepK=T KAlg= 1 I1Cent= 0 FoldK=F
 E= -742.802660753072     Delta-E=       -0.000119476623 Rises=F Damp=F
 DIIS: error= 5.28D-04 at cycle   6 NSaved=   6.
 NSaved= 6 IEnMin= 6 EnMin= -742.802660753072     IErMin= 6 ErrMin= 5.28D-04
 ErrMax= 5.28D-04 EMaxC= 1.00D-01 BMatC= 6.62D-05 BMatP= 1.31D-04
 IDIUse=3 WtCom= 9.95D-01 WtEn= 5.28D-03
 Coeff-Com:  0.385D-02-0.106D-01-0.534D-01-0.166D+00 0.423D+00 0.803D+00
 Coeff-En:   0.000D+00 0.000D+00 0.000D+00 0.000D+00 0.000D+00 0.100D+01
 Coeff:      0.383D-02-0.105D-01-0.532D-01-0.165D+00 0.421D+00 0.804D+00
 Gap=     0.416 Goal=   None    Shift=    0.000
 Gap=     0.247 Goal=   None    Shift=    0.000
 RMSDP=5.10D-05 MaxDP=1.09D-03 DE=-1.19D-04 OVMax= 6.06D-03

 Cycle   7  Pass 0  IDiag  1:
 RMSU=  1.51D-05    CP:  9.76D-01  1.61D+00  8.55D-01  1.09D+00  1.57D+00
                    CP:  1.33D+00
 FoFJK:  IHMeth= 1 ICntrl=     0 DoSepK=T KAlg= 1 I1Cent= 0 FoldK=F
 E= -742.802726649758     Delta-E=       -0.000065896686 Rises=F Damp=F
 DIIS: error= 4.12D-04 at cycle   7 NSaved=   7.
 NSaved= 7 IEnMin= 7 EnMin= -742.802726649758     IErMin= 7 ErrMin= 4.12D-04
 ErrMax= 4.12D-04 EMaxC= 1.00D-01 BMatC= 1.80D-05 BMatP= 6.62D-05
 IDIUse=3 WtCom= 9.96D-01 WtEn= 4.12D-03
 Coeff-Com: -0.184D-02 0.486D-02-0.214D-02-0.373D-01-0.218D+00 0.115D+00
 Coeff-Com:  0.114D+01
 Coeff-En:   0.000D+00 0.000D+00 0.000D+00 0.000D+00 0.000D+00 0.000D+00
 Coeff-En:   0.100D+01
 Coeff:     -0.184D-02 0.484D-02-0.214D-02-0.372D-01-0.217D+00 0.114D+00
 Coeff:      0.114D+01
 Gap=     0.416 Goal=   None    Shift=    0.000
 Gap=     0.247 Goal=   None    Shift=    0.000
 RMSDP=4.55D-05 MaxDP=1.18D-03 DE=-6.59D-05 OVMax= 6.12D-03

 Cycle   8  Pass 0  IDiag  1:
 RMSU=  1.12D-05    CP:  9.76D-01  1.61D+00  8.56D-01  1.10D+00  1.78D+00
                    CP:  1.89D+00  1.73D+00
 FoFJK:  IHMeth= 1 ICntrl=     0 DoSepK=T KAlg= 1 I1Cent= 0 FoldK=F
 E= -742.802765347521     Delta-E=       -0.000038697763 Rises=F Damp=F
 DIIS: error= 2.20D-04 at cycle   8 NSaved=   8.
 NSaved= 8 IEnMin= 8 EnMin= -742.802765347521     IErMin= 8 ErrMin= 2.20D-04
 ErrMax= 2.20D-04 EMaxC= 1.00D-01 BMatC= 7.60D-06 BMatP= 1.80D-05
 IDIUse=3 WtCom= 9.98D-01 WtEn= 2.20D-03
 Coeff-Com: -0.152D-02 0.396D-02 0.232D-01 0.780D-01-0.203D+00-0.314D+00
 Coeff-Com:  0.124D+00 0.129D+01
 Coeff-En:   0.000D+00 0.000D+00 0.000D+00 0.000D+00 0.000D+00 0.000D+00
 Coeff-En:   0.000D+00 0.100D+01
 Coeff:     -0.151D-02 0.396D-02 0.231D-01 0.778D-01-0.203D+00-0.314D+00
 Coeff:      0.124D+00 0.129D+01
 Gap=     0.416 Goal=   None    Shift=    0.000
 Gap=     0.247 Goal=   None    Shift=    0.000
 RMSDP=4.25D-05 MaxDP=9.92D-04 DE=-3.87D-05 OVMax= 6.19D-03

 Cycle   9  Pass 0  IDiag  1:
 RMSU=  5.62D-06    CP:  9.76D-01  1.61D+00  8.55D-01  1.11D+00  1.94D+00
                    CP:  2.35D+00  2.65D+00  1.88D+00
 FoFJK:  IHMeth= 1 ICntrl=     0 DoSepK=T KAlg= 1 I1Cent= 0 FoldK=F
 E= -742.802787511637     Delta-E=       -0.000022164116 Rises=F Damp=F
 DIIS: error= 1.20D-04 at cycle   9 NSaved=   9.
 NSaved= 9 IEnMin= 9 EnMin= -742.802787511637     IErMin= 9 ErrMin= 1.20D-04
 ErrMax= 1.20D-04 EMaxC= 1.00D-01 BMatC= 4.28D-06 BMatP= 7.60D-06
 IDIUse=3 WtCom= 9.99D-01 WtEn= 1.20D-03
 Coeff-Com: -0.136D-03 0.463D-03 0.137D-01 0.570D-01-0.283D-01-0.225D+00
 Coeff-Com: -0.427D+00 0.780D+00 0.830D+00
 Coeff-En:   0.000D+00 0.000D+00 0.000D+00 0.000D+00 0.000D+00 0.000D+00
 Coeff-En:   0.000D+00 0.000D+00 0.100D+01
 Coeff:     -0.136D-03 0.462D-03 0.137D-01 0.570D-01-0.283D-01-0.225D+00
 Coeff:     -0.427D+00 0.779D+00 0.830D+00
 Gap=     0.416 Goal=   None    Shift=    0.000
 Gap=     0.247 Goal=   None    Shift=    0.000
 RMSDP=2.87D-05 MaxDP=6.52D-04 DE=-2.22D-05 OVMax= 4.05D-03

 Cycle  10  Pass 0  IDiag  1:
 RMSU=  5.98D-06    CP:  9.76D-01  1.61D+00  8.55D-01  1.12D+00  2.02D+00
                    CP:  2.64D+00  3.00D+00  2.68D+00  1.28D+00
 FoFJK:  IHMeth= 1 ICntrl=     0 DoSepK=T KAlg= 1 I1Cent= 0 FoldK=F
 E= -742.802795750342     Delta-E=       -0.000008238706 Rises=F Damp=F
 DIIS: error= 7.31D-05 at cycle  10 NSaved=  10.
 NSaved=10 IEnMin=10 EnMin= -742.802795750342     IErMin=10 ErrMin= 7.31D-05
 ErrMax= 7.31D-05 EMaxC= 1.00D-01 BMatC= 8.69D-07 BMatP= 4.28D-06
 IDIUse=1 WtCom= 1.00D+00 WtEn= 0.00D+00
 Coeff-Com:  0.859D-03-0.218D-02-0.660D-02-0.186D-01 0.931D-01 0.893D-01
 Coeff-Com: -0.218D+00-0.317D+00 0.164D+00 0.121D+01
 Coeff:      0.859D-03-0.218D-02-0.660D-02-0.186D-01 0.931D-01 0.893D-01
 Coeff:     -0.218D+00-0.317D+00 0.164D+00 0.121D+01
 Gap=     0.416 Goal=   None    Shift=    0.000
 Gap=     0.247 Goal=   None    Shift=    0.000
 RMSDP=1.98D-05 MaxDP=4.14D-04 DE=-8.24D-06 OVMax= 3.10D-03

 Cycle  11  Pass 0  IDiag  1:
 RMSU=  4.94D-06    CP:  9.76D-01  1.61D+00  8.55D-01  1.12D+00  2.08D+00
                    CP:  2.79D+00  3.00D+00  3.00D+00  1.92D+00  2.12D+00
 FoFJK:  IHMeth= 1 ICntrl=     0 DoSepK=T KAlg= 1 I1Cent= 0 FoldK=F
 E= -742.802798390700     Delta-E=       -0.000002640358 Rises=F Damp=F
 DIIS: error= 2.55D-05 at cycle  11 NSaved=  11.
 NSaved=11 IEnMin=11 EnMin= -742.802798390700     IErMin=11 ErrMin= 2.55D-05
 ErrMax= 2.55D-05 EMaxC= 1.00D-01 BMatC= 1.80D-07 BMatP= 8.69D-07
 IDIUse=1 WtCom= 1.00D+00 WtEn= 0.00D+00
 Coeff-Com:  0.298D-03-0.792D-03-0.422D-02-0.153D-01 0.297D-01 0.704D-01
 Coeff-Com:  0.112D-01-0.215D+00-0.160D+00 0.353D+00 0.931D+00
 Coeff:      0.298D-03-0.792D-03-0.422D-02-0.153D-01 0.297D-01 0.704D-01
 Coeff:      0.112D-01-0.215D+00-0.160D+00 0.353D+00 0.931D+00
 Gap=     0.416 Goal=   None    Shift=    0.000
 Gap=     0.247 Goal=   None    Shift=    0.000
 RMSDP=6.95D-06 MaxDP=1.38D-04 DE=-2.64D-06 OVMax= 1.09D-03

 Initial convergence to 1.0D-05 achieved.  Increase integral accuracy.
 Cycle  12  Pass 1  IDiag  1:
 FoFJK:  IHMeth= 1 ICntrl=     0 DoSepK=T KAlg= 1 I1Cent= 0 FoldK=F
 E= -742.802893415263     Delta-E=       -0.000095024563 Rises=F Damp=F
 DIIS: error= 4.22D-05 at cycle   1 NSaved=   1.
 NSaved= 1 IEnMin= 1 EnMin= -742.802893415263     IErMin= 1 ErrMin= 4.22D-05
 ErrMax= 4.22D-05 EMaxC= 1.00D-01 BMatC= 1.54D-06 BMatP= 1.54D-06
 IDIUse=1 WtCom= 1.00D+00 WtEn= 0.00D+00
 Coeff-Com:  0.100D+01
 Coeff:      0.100D+01
 Gap=     0.416 Goal=   None    Shift=    0.000
 Gap=     0.247 Goal=   None    Shift=    0.000
 RMSDP=6.95D-06 MaxDP=1.38D-04 DE=-9.50D-05 OVMax= 2.12D-04

 Cycle  13  Pass 1  IDiag  1:
 RMSU=  1.02D-05    CP:  1.00D+00
 FoFJK:  IHMeth= 1 ICntrl=     0 DoSepK=T KAlg= 1 I1Cent= 0 FoldK=F
 E= -742.802893708381     Delta-E=       -0.000000293119 Rises=F Damp=F
 DIIS: error= 9.90D-06 at cycle   2 NSaved=   2.
 NSaved= 2 IEnMin= 2 EnMin= -742.802893708381     IErMin= 2 ErrMin= 9.90D-06
 ErrMax= 9.90D-06 EMaxC= 1.00D-01 BMatC= 7.57D-08 BMatP= 1.54D-06
 IDIUse=1 WtCom= 1.00D+00 WtEn= 0.00D+00
 Coeff-Com:  0.308D-01 0.969D+00
 Coeff:      0.308D-01 0.969D+00
 Gap=     0.416 Goal=   None    Shift=    0.000
 Gap=     0.247 Goal=   None    Shift=    0.000
 RMSDP=1.93D-06 MaxDP=4.68D-05 DE=-2.93D-07 OVMax= 1.57D-04

 Cycle  14  Pass 1  IDiag  1:
 RMSU=  9.94D-07    CP:  1.00D+00  1.07D+00
 FoFJK:  IHMeth= 1 ICntrl=     0 DoSepK=T KAlg= 1 I1Cent= 0 FoldK=F
 E= -742.802893737937     Delta-E=       -0.000000029555 Rises=F Damp=F
 DIIS: error= 9.41D-06 at cycle   3 NSaved=   3.
 NSaved= 3 IEnMin= 3 EnMin= -742.802893737937     IErMin= 3 ErrMin= 9.41D-06
 ErrMax= 9.41D-06 EMaxC= 1.00D-01 BMatC= 5.49D-08 BMatP= 7.57D-08
 IDIUse=1 WtCom= 1.00D+00 WtEn= 0.00D+00
 Coeff-Com: -0.270D-01 0.452D+00 0.575D+00
 Coeff:     -0.270D-01 0.452D+00 0.575D+00
 Gap=     0.416 Goal=   None    Shift=    0.000
 Gap=     0.247 Goal=   None    Shift=    0.000
 RMSDP=7.84D-07 MaxDP=1.53D-05 DE=-2.96D-08 OVMax= 8.78D-05

 Cycle  15  Pass 1  IDiag  1:
 RMSU=  4.29D-07    CP:  1.00D+00  1.09D+00  1.00D+00
 FoFJK:  IHMeth= 1 ICntrl=     0 DoSepK=T KAlg= 1 I1Cent= 0 FoldK=F
 E= -742.802893756463     Delta-E=       -0.000000018526 Rises=F Damp=F
 DIIS: error= 7.09D-06 at cycle   4 NSaved=   4.
 NSaved= 4 IEnMin= 4 EnMin= -742.802893756463     IErMin= 4 ErrMin= 7.09D-06
 ErrMax= 7.09D-06 EMaxC= 1.00D-01 BMatC= 7.47D-09 BMatP= 5.49D-08
 IDIUse=1 WtCom= 1.00D+00 WtEn= 0.00D+00
 Coeff-Com: -0.126D-01-0.413D-01 0.148D+00 0.906D+00
 Coeff:     -0.126D-01-0.413D-01 0.148D+00 0.906D+00
 Gap=     0.416 Goal=   None    Shift=    0.000
 Gap=     0.247 Goal=   None    Shift=    0.000
 RMSDP=7.94D-07 MaxDP=1.14D-05 DE=-1.85D-08 OVMax= 1.17D-04

 Cycle  16  Pass 1  IDiag  1:
 RMSU=  2.36D-07    CP:  1.00D+00  1.10D+00  1.35D+00  1.54D+00
 FoFJK:  IHMeth= 1 ICntrl=     0 DoSepK=T KAlg= 1 I1Cent= 0 FoldK=F
 E= -742.802893769582     Delta-E=       -0.000000013119 Rises=F Damp=F
 DIIS: error= 6.01D-06 at cycle   5 NSaved=   5.
 NSaved= 5 IEnMin= 5 EnMin= -742.802893769582     IErMin= 5 ErrMin= 6.01D-06
 ErrMax= 6.01D-06 EMaxC= 1.00D-01 BMatC= 3.24D-09 BMatP= 7.47D-09
 IDIUse=1 WtCom= 1.00D+00 WtEn= 0.00D+00
 Coeff-Com:  0.894D-02-0.977D-01-0.158D+00-0.141D+00 0.139D+01
 Coeff:      0.894D-02-0.977D-01-0.158D+00-0.141D+00 0.139D+01
 Gap=     0.416 Goal=   None    Shift=    0.000
 Gap=     0.247 Goal=   None    Shift=    0.000
 RMSDP=1.01D-06 MaxDP=1.92D-05 DE=-1.31D-08 OVMax= 1.60D-04

 Cycle  17  Pass 1  IDiag  1:
 RMSU=  1.53D-07    CP:  1.00D+00  1.10D+00  1.72D+00  2.42D+00  2.16D+00
 FoFJK:  IHMeth= 1 ICntrl=     0 DoSepK=T KAlg= 1 I1Cent= 0 FoldK=F
 E= -742.802893782241     Delta-E=       -0.000000012659 Rises=F Damp=F
 DIIS: error= 4.35D-06 at cycle   6 NSaved=   6.
 NSaved= 6 IEnMin= 6 EnMin= -742.802893782241     IErMin= 6 ErrMin= 4.35D-06
 ErrMax= 4.35D-06 EMaxC= 1.00D-01 BMatC= 2.72D-09 BMatP= 3.24D-09
 IDIUse=1 WtCom= 1.00D+00 WtEn= 0.00D+00
 Coeff-Com:  0.144D-01-0.415D-01-0.224D+00-0.784D+00 0.108D+01 0.956D+00
 Coeff:      0.144D-01-0.415D-01-0.224D+00-0.784D+00 0.108D+01 0.956D+00
 Gap=     0.416 Goal=   None    Shift=    0.000
 Gap=     0.247 Goal=   None    Shift=    0.000
 RMSDP=1.14D-06 MaxDP=1.71D-05 DE=-1.27D-08 OVMax= 1.72D-04

 Cycle  18  Pass 1  IDiag  1:
 RMSU=  2.11D-07    CP:  1.00D+00  1.11D+00  2.13D+00  3.00D+00  3.00D+00
                    CP:  1.56D+00
 FoFJK:  IHMeth= 1 ICntrl=     0 DoSepK=T KAlg= 1 I1Cent= 0 FoldK=F
 E= -742.802893791510     Delta-E=       -0.000000009269 Rises=F Damp=F
 DIIS: error= 2.89D-06 at cycle   7 NSaved=   7.
 NSaved= 7 IEnMin= 7 EnMin= -742.802893791510     IErMin= 7 ErrMin= 2.89D-06
 ErrMax= 2.89D-06 EMaxC= 1.00D-01 BMatC= 5.17D-10 BMatP= 2.72D-09
 IDIUse=1 WtCom= 1.00D+00 WtEn= 0.00D+00
 Coeff-Com: -0.580D-02 0.580D-01 0.106D+00 0.132D+00-0.774D+00-0.136D+00
 Coeff-Com:  0.162D+01
 Coeff:     -0.580D-02 0.580D-01 0.106D+00 0.132D+00-0.774D+00-0.136D+00
 Coeff:      0.162D+01
 Gap=     0.416 Goal=   None    Shift=    0.000
 Gap=     0.247 Goal=   None    Shift=    0.000
 RMSDP=9.17D-07 MaxDP=1.50D-05 DE=-9.27D-09 OVMax= 1.35D-04

 Cycle  19  Pass 1  IDiag  1:
 RMSU=  1.09D-07    CP:  1.00D+00  1.12D+00  2.42D+00  3.00D+00  3.00D+00
                    CP:  2.61D+00  2.77D+00
 FoFJK:  IHMeth= 1 ICntrl=     0 DoSepK=T KAlg= 1 I1Cent= 0 FoldK=F
 E= -742.802893795111     Delta-E=       -0.000000003601 Rises=F Damp=F
 DIIS: error= 1.33D-06 at cycle   8 NSaved=   8.
 NSaved= 8 IEnMin= 8 EnMin= -742.802893795111     IErMin= 8 ErrMin= 1.33D-06
 ErrMax= 1.33D-06 EMaxC= 1.00D-01 BMatC= 1.23D-10 BMatP= 5.17D-10
 IDIUse=1 WtCom= 1.00D+00 WtEn= 0.00D+00
 Coeff-Com: -0.232D-02 0.978D-02 0.431D-01 0.156D+00-0.262D+00-0.148D+00
 Coeff-Com:  0.720D-01 0.113D+01
 Coeff:     -0.232D-02 0.978D-02 0.431D-01 0.156D+00-0.262D+00-0.148D+00
 Coeff:      0.720D-01 0.113D+01
 Gap=     0.416 Goal=   None    Shift=    0.000
 Gap=     0.247 Goal=   None    Shift=    0.000
 RMSDP=2.63D-07 MaxDP=3.99D-06 DE=-3.60D-09 OVMax= 3.47D-05

 Cycle  20  Pass 1  IDiag  1:
 RMSU=  6.60D-08    CP:  1.00D+00  1.12D+00  2.49D+00  3.00D+00  3.00D+00
                    CP:  3.00D+00  3.00D+00  1.26D+00
 FoFJK:  IHMeth= 1 ICntrl=     0 DoSepK=T KAlg= 1 I1Cent= 0 FoldK=F
 E= -742.802893795584     Delta-E=       -0.000000000473 Rises=F Damp=F
 DIIS: error= 8.67D-07 at cycle   9 NSaved=   9.
 NSaved= 9 IEnMin= 9 EnMin= -742.802893795584     IErMin= 9 ErrMin= 8.67D-07
 ErrMax= 8.67D-07 EMaxC= 1.00D-01 BMatC= 6.44D-11 BMatP= 1.23D-10
 IDIUse=1 WtCom= 1.00D+00 WtEn= 0.00D+00
 Coeff-Com:  0.131D-02-0.206D-01-0.314D-01 0.869D-02 0.216D+00 0.346D-01
 Coeff-Com: -0.701D+00 0.525D+00 0.968D+00
 Coeff:      0.131D-02-0.206D-01-0.314D-01 0.869D-02 0.216D+00 0.346D-01
 Coeff:     -0.701D+00 0.525D+00 0.968D+00
 Gap=     0.416 Goal=   None    Shift=    0.000
 Gap=     0.247 Goal=   None    Shift=    0.000
 RMSDP=1.45D-07 MaxDP=2.39D-06 DE=-4.73D-10 OVMax= 2.15D-05

 Cycle  21  Pass 1  IDiag  1:
 RMSU=  4.52D-08    CP:  1.00D+00  1.12D+00  2.52D+00  3.00D+00  3.00D+00
                    CP:  3.00D+00  3.00D+00  1.50D+00  1.87D+00
 FoFJK:  IHMeth= 1 ICntrl=     0 DoSepK=T KAlg= 1 I1Cent= 0 FoldK=F
 E= -742.802893795755     Delta-E=       -0.000000000171 Rises=F Damp=F
 DIIS: error= 5.16D-07 at cycle  10 NSaved=  10.
 NSaved=10 IEnMin=10 EnMin= -742.802893795755     IErMin=10 ErrMin= 5.16D-07
 ErrMax= 5.16D-07 EMaxC= 1.00D-01 BMatC= 1.86D-11 BMatP= 6.44D-11
 IDIUse=1 WtCom= 1.00D+00 WtEn= 0.00D+00
 Coeff-Com:  0.955D-03-0.622D-02-0.213D-01-0.463D-01 0.113D+00 0.737D-01
 Coeff-Com: -0.173D+00-0.214D+00 0.127D+00 0.115D+01
 Coeff:      0.955D-03-0.622D-02-0.213D-01-0.463D-01 0.113D+00 0.737D-01
 Coeff:     -0.173D+00-0.214D+00 0.127D+00 0.115D+01
 Gap=     0.416 Goal=   None    Shift=    0.000
 Gap=     0.247 Goal=   None    Shift=    0.000
 RMSDP=8.12D-08 MaxDP=1.33D-06 DE=-1.71D-10 OVMax= 1.22D-05

 Cycle  22  Pass 1  IDiag  1:
 RMSU=  1.83D-08    CP:  1.00D+00  1.12D+00  2.52D+00  3.00D+00  3.00D+00
                    CP:  3.00D+00  3.00D+00  1.64D+00  2.30D+00  1.56D+00
 FoFJK:  IHMeth= 1 ICntrl=     0 DoSepK=T KAlg= 1 I1Cent= 0 FoldK=F
 E= -742.802893795816     Delta-E=       -0.000000000061 Rises=F Damp=F
 DIIS: error= 3.30D-07 at cycle  11 NSaved=  11.
 NSaved=11 IEnMin=11 EnMin= -742.802893795816     IErMin=11 ErrMin= 3.30D-07
 ErrMax= 3.30D-07 EMaxC= 1.00D-01 BMatC= 7.28D-12 BMatP= 1.86D-11
 IDIUse=1 WtCom= 1.00D+00 WtEn= 0.00D+00
 Coeff-Com: -0.322D-03 0.620D-02 0.871D-02-0.612D-02-0.737D-01 0.426D-02
 Coeff-Com:  0.235D+00-0.211D+00-0.349D+00 0.150D-01 0.137D+01
 Coeff:     -0.322D-03 0.620D-02 0.871D-02-0.612D-02-0.737D-01 0.426D-02
 Coeff:      0.235D+00-0.211D+00-0.349D+00 0.150D-01 0.137D+01
 Gap=     0.416 Goal=   None    Shift=    0.000
 Gap=     0.247 Goal=   None    Shift=    0.000
 RMSDP=6.64D-08 MaxDP=1.13D-06 DE=-6.14D-11 OVMax= 1.01D-05

 Cycle  23  Pass 1  IDiag  1:
 RMSU=  8.58D-09    CP:  1.00D+00  1.12D+00  2.52D+00  3.00D+00  3.00D+00
                    CP:  3.00D+00  3.00D+00  1.73D+00  2.61D+00  1.99D+00
                    CP:  2.10D+00
 FoFJK:  IHMeth= 1 ICntrl=     0 DoSepK=T KAlg= 1 I1Cent= 0 FoldK=F
 E= -742.802893795851     Delta-E=       -0.000000000034 Rises=F Damp=F
 DIIS: error= 1.83D-07 at cycle  12 NSaved=  12.
 NSaved=12 IEnMin=12 EnMin= -742.802893795851     IErMin=12 ErrMin= 1.83D-07
 ErrMax= 1.83D-07 EMaxC= 1.00D-01 BMatC= 3.16D-12 BMatP= 7.28D-12
 IDIUse=1 WtCom= 1.00D+00 WtEn= 0.00D+00
 Coeff-Com: -0.506D-03 0.362D-02 0.116D-01 0.235D-01-0.709D-01-0.287D-01
 Coeff-Com:  0.113D+00 0.772D-01-0.102D+00-0.554D+00 0.283D+00 0.124D+01
 Coeff:     -0.506D-03 0.362D-02 0.116D-01 0.235D-01-0.709D-01-0.287D-01
 Coeff:      0.113D+00 0.772D-01-0.102D+00-0.554D+00 0.283D+00 0.124D+01
 Gap=     0.416 Goal=   None    Shift=    0.000
 Gap=     0.247 Goal=   None    Shift=    0.000
 RMSDP=4.41D-08 MaxDP=7.46D-07 DE=-3.43D-11 OVMax= 6.33D-06

 Cycle  24  Pass 1  IDiag  1:
 RMSU=  5.72D-09    CP:  1.00D+00  1.12D+00  2.52D+00  3.00D+00  3.00D+00
                    CP:  3.00D+00  3.00D+00  1.77D+00  2.77D+00  2.25D+00
                    CP:  2.98D+00  1.95D+00
 FoFJK:  IHMeth= 1 ICntrl=     0 DoSepK=T KAlg= 1 I1Cent= 0 FoldK=F
 E= -742.802893795865     Delta-E=       -0.000000000015 Rises=F Damp=F
 DIIS: error= 9.58D-08 at cycle  13 NSaved=  13.
 NSaved=13 IEnMin=13 EnMin= -742.802893795865     IErMin=13 ErrMin= 9.58D-08
 ErrMax= 9.58D-08 EMaxC= 1.00D-01 BMatC= 1.10D-12 BMatP= 3.16D-12
 IDIUse=1 WtCom= 1.00D+00 WtEn= 0.00D+00
 Coeff-Com: -0.509D-04-0.136D-02 0.696D-03 0.130D-01 0.543D-02-0.125D-01
 Coeff-Com: -0.653D-01 0.139D+00 0.106D+00-0.255D+00-0.457D+00 0.442D+00
 Coeff-Com:  0.108D+01
 Coeff:     -0.509D-04-0.136D-02 0.696D-03 0.130D-01 0.543D-02-0.125D-01
 Coeff:     -0.653D-01 0.139D+00 0.106D+00-0.255D+00-0.457D+00 0.442D+00
 Coeff:      0.108D+01
 Gap=     0.416 Goal=   None    Shift=    0.000
 Gap=     0.247 Goal=   None    Shift=    0.000
 RMSDP=2.92D-08 MaxDP=4.62D-07 DE=-1.48D-11 OVMax= 4.16D-06

 Cycle  25  Pass 1  IDiag  1:
 RMSU=  1.04D-08    CP:  1.00D+00  1.12D+00  2.52D+00  3.00D+00  3.00D+00
                    CP:  3.00D+00  3.00D+00  1.78D+00  2.83D+00  2.40D+00
                    CP:  3.00D+00  2.77D+00  1.80D+00
 FoFJK:  IHMeth= 1 ICntrl=     0 DoSepK=T KAlg= 1 I1Cent= 0 FoldK=F
 E= -742.802893795870     Delta-E=       -0.000000000005 Rises=F Damp=F
 DIIS: error= 3.98D-08 at cycle  14 NSaved=  14.
 NSaved=14 IEnMin=14 EnMin= -742.802893795870     IErMin=14 ErrMin= 3.98D-08
 ErrMax= 3.98D-08 EMaxC= 1.00D-01 BMatC= 2.33D-13 BMatP= 1.10D-12
 IDIUse=1 WtCom= 1.00D+00 WtEn= 0.00D+00
 Coeff-Com:  0.121D-03-0.124D-02-0.347D-02-0.503D-02 0.235D-01 0.546D-02
 Coeff-Com: -0.476D-01 0.950D-02 0.399D-01 0.111D+00-0.159D+00-0.307D+00
 Coeff-Com:  0.265D+00 0.107D+01
 Coeff:      0.121D-03-0.124D-02-0.347D-02-0.503D-02 0.235D-01 0.546D-02
 Coeff:     -0.476D-01 0.950D-02 0.399D-01 0.111D+00-0.159D+00-0.307D+00
 Coeff:      0.265D+00 0.107D+01
 Gap=     0.416 Goal=   None    Shift=    0.000
 Gap=     0.247 Goal=   None    Shift=    0.000
 RMSDP=1.25D-08 MaxDP=1.94D-07 DE=-4.55D-12 OVMax= 1.69D-06

 Cycle  26  Pass 1  IDiag  1:
 RMSU=  2.06D-09    CP:  1.00D+00  1.12D+00  2.52D+00  3.00D+00  3.00D+00
                    CP:  3.00D+00  3.00D+00  1.78D+00  2.86D+00  2.46D+00
                    CP:  3.00D+00  3.00D+00  2.32D+00  1.40D+00
 FoFJK:  IHMeth= 1 ICntrl=     0 DoSepK=T KAlg= 1 I1Cent= 0 FoldK=F
 E= -742.802893795869     Delta-E=        0.000000000001 Rises=F Damp=F
 DIIS: error= 1.41D-08 at cycle  15 NSaved=  15.
 NSaved=15 IEnMin=14 EnMin= -742.802893795870     IErMin=15 ErrMin= 1.41D-08
 ErrMax= 1.41D-08 EMaxC= 1.00D-01 BMatC= 3.19D-14 BMatP= 2.33D-13
 IDIUse=1 WtCom= 1.00D+00 WtEn= 0.00D+00
 Coeff-Com:  0.301D-04 0.262D-04-0.537D-03-0.260D-02 0.220D-02 0.218D-02
 Coeff-Com:  0.410D-02-0.207D-01-0.122D-01 0.543D-01 0.579D-01-0.109D+00
 Coeff-Com: -0.158D+00 0.126D+00 0.106D+01
 Coeff:      0.301D-04 0.262D-04-0.537D-03-0.260D-02 0.220D-02 0.218D-02
 Coeff:      0.410D-02-0.207D-01-0.122D-01 0.543D-01 0.579D-01-0.109D+00
 Coeff:     -0.158D+00 0.126D+00 0.106D+01
 Gap=     0.416 Goal=   None    Shift=    0.000
 Gap=     0.247 Goal=   None    Shift=    0.000
 RMSDP=3.49D-09 MaxDP=5.62D-08 DE= 1.36D-12 OVMax= 5.27D-07

 SCF Done:  E(UwB97XD) =  -742.802893796     A.U. after   26 cycles
             Convg  =    0.3486D-08             -V/T =  2.0045
 <Sx>= 0.0000 <Sy>= 0.0000 <Sz>= 0.5000 <S**2>= 0.7633 S= 0.5066
 <L.S>= 0.000000000000E+00
 KE= 7.394968905696D+02 PE=-2.519046230941D+03 EE= 6.593574022137D+02
 Annihilation of the first spin contaminant:
 S**2 before annihilation     0.7633,   after     0.7501
 Leave Link  502 at Sat May 13 17:40:38 2017, MaxMem=   33554432 cpu:     320.8
 (Enter /share/apps/gaussian09/g09/l601.exe)
 Copying SCF densities to generalized density rwf, IOpCl= 1 IROHF=0.

 **********************************************************************

            Population analysis using the SCF density.

 **********************************************************************

 Alpha  occ. eigenvalues --  -66.41679 -24.81860 -24.81821 -24.81393 -19.24896
 Alpha  occ. eigenvalues --  -10.38795 -10.35962  -5.51023  -3.85680  -3.85633
 Alpha  occ. eigenvalues --   -3.85476  -1.31117  -1.28442  -1.28368  -1.06506
 Alpha  occ. eigenvalues --   -0.93693  -0.76746  -0.66278  -0.62049  -0.61234
 Alpha  occ. eigenvalues --   -0.58045  -0.57966  -0.55782  -0.52660  -0.52566
 Alpha  occ. eigenvalues --   -0.51719  -0.50555  -0.50504  -0.48647  -0.43459
 Alpha  occ. eigenvalues --   -0.43061  -0.41345  -0.40928
 Alpha virt. eigenvalues --    0.00624   0.10143   0.11512   0.12897   0.16731
 Alpha virt. eigenvalues --    0.19214   0.19970   0.20958   0.23281   0.23853
 Alpha virt. eigenvalues --    0.25414   0.26480   0.29989   0.30531   0.33082
 Alpha virt. eigenvalues --    0.34310   0.35390   0.36427   0.37760   0.41090
 Alpha virt. eigenvalues --    0.46574   0.49123   0.52499   0.53520   0.57702
 Alpha virt. eigenvalues --    0.59994   0.60821   0.64915   0.67103   0.71295
 Alpha virt. eigenvalues --    0.84679   0.90329   0.91242   0.99367   1.05526
 Alpha virt. eigenvalues --    1.19750   1.21658   1.24341   1.30673   1.31406
 Alpha virt. eigenvalues --    1.32392   1.33628   1.34312   1.35244   1.35555
 Alpha virt. eigenvalues --    1.35859   1.36314   1.36899   1.37171   1.38412
 Alpha virt. eigenvalues --    1.43192   1.44281   1.46755   1.52710   1.53105
 Alpha virt. eigenvalues --    1.54302   1.55517   1.61426   1.68107   1.76614
 Alpha virt. eigenvalues --    1.77796   1.78115   1.80945   1.88476   1.92374
 Alpha virt. eigenvalues --    1.93278   2.02537   2.09151   2.19996   2.21281
 Alpha virt. eigenvalues --    2.26067   2.31496   2.31981   2.42636   2.47159
 Alpha virt. eigenvalues --    2.53995   2.60613   2.67770   2.73740   2.74638
 Alpha virt. eigenvalues --    2.75289   2.76829   2.78099   2.84367   2.90681
 Alpha virt. eigenvalues --    2.98851   3.01698   3.15324   3.17056   3.26153
 Alpha virt. eigenvalues --    3.34602   3.43477   4.10251   9.97563  21.54518
 Alpha virt. eigenvalues --   22.12809  43.56168
  Beta  occ. eigenvalues --  -66.41651 -24.81834 -24.81800 -24.81391 -19.24295
  Beta  occ. eigenvalues --  -10.37812 -10.36082  -5.50990  -3.85651  -3.85615
  Beta  occ. eigenvalues --   -3.85408  -1.31069  -1.28378  -1.28343  -1.04807
  Beta  occ. eigenvalues --   -0.91957  -0.74158  -0.65341  -0.60819  -0.58815
  Beta  occ. eigenvalues --   -0.57953  -0.57884  -0.54778  -0.52608  -0.52497
  Beta  occ. eigenvalues --   -0.50503  -0.50438  -0.49747  -0.48629  -0.42432
  Beta  occ. eigenvalues --   -0.40400  -0.40181
  Beta virt. eigenvalues --   -0.15501   0.01611   0.10622   0.11903   0.13346
  Beta virt. eigenvalues --    0.16972   0.19490   0.20124   0.21239   0.23494
  Beta virt. eigenvalues --    0.24574   0.25626   0.26890   0.30570   0.31926
  Beta virt. eigenvalues --    0.33670   0.34898   0.35623   0.36817   0.38103
  Beta virt. eigenvalues --    0.41503   0.46992   0.49475   0.53259   0.54753
  Beta virt. eigenvalues --    0.58452   0.60391   0.61241   0.66247   0.67272
  Beta virt. eigenvalues --    0.71396   0.84812   0.90360   0.91401   1.00354
  Beta virt. eigenvalues --    1.06035   1.20667   1.22302   1.25191   1.31922
  Beta virt. eigenvalues --    1.32068   1.33220   1.33808   1.35193   1.35601
  Beta virt. eigenvalues --    1.35853   1.36103   1.36698   1.37546   1.37850
  Beta virt. eigenvalues --    1.39204   1.43845   1.44532   1.47441   1.53192
  Beta virt. eigenvalues --    1.53539   1.54728   1.57250   1.61588   1.70618
  Beta virt. eigenvalues --    1.77334   1.78169   1.78933   1.81865   1.90452
  Beta virt. eigenvalues --    1.93750   1.94862   2.03894   2.10317   2.20087
  Beta virt. eigenvalues --    2.21375   2.26852   2.31872   2.32821   2.44234
  Beta virt. eigenvalues --    2.48425   2.55328   2.61542   2.68979   2.74530
  Beta virt. eigenvalues --    2.75366   2.76220   2.77896   2.79052   2.85332
  Beta virt. eigenvalues --    2.92245   2.99992   3.02632   3.16745   3.17727
  Beta virt. eigenvalues --    3.27528   3.36237   3.44967   4.12338   9.97621
  Beta virt. eigenvalues --   21.55446  22.13435  43.56754
          Condensed to atoms (all electrons):
              1          2          3          4          5          6
     1  Si  11.512292   0.415797   0.352779   0.348832   0.353781  -0.068170
     2  O    0.415797   8.073971  -0.012786  -0.017951  -0.012203   0.188647
     3  F    0.352779  -0.012786   8.988642  -0.006289  -0.006511  -0.001120
     4  F    0.348832  -0.017951  -0.006289   9.006276  -0.007329   0.001220
     5  F    0.353781  -0.012203  -0.006511  -0.007329   8.987100  -0.001201
     6  H   -0.068170   0.188647  -0.001120   0.001220  -0.001201   0.549840
     7  C    0.022940  -0.062249   0.000166  -0.001252   0.000218   0.113445
     8  C    0.001057   0.002915  -0.000001   0.000001   0.000001  -0.032479
     9  H   -0.000344  -0.007497  -0.000026   0.001064  -0.000030   0.000821
    10  H   -0.000062  -0.000096   0.000000   0.000000   0.000000   0.002115
    11  H    0.000113   0.000143   0.000000   0.000000   0.000000  -0.002590
              7          8          9         10         11
     1  Si   0.022940   0.001057  -0.000344  -0.000062   0.000113
     2  O   -0.062249   0.002915  -0.007497  -0.000096   0.000143
     3  F    0.000166  -0.000001  -0.000026   0.000000   0.000000
     4  F   -0.001252   0.000001   0.001064   0.000000   0.000000
     5  F    0.000218   0.000001  -0.000030   0.000000   0.000000
     6  H    0.113445  -0.032479   0.000821   0.002115  -0.002590
     7  C    5.200939   0.533822   0.359996  -0.021033  -0.026297
     8  C    0.533822   4.967385  -0.046884   0.387799   0.391241
     9  H    0.359996  -0.046884   0.509014  -0.004162   0.003666
    10  H   -0.021033   0.387799  -0.004162   0.478381  -0.020306
    11  H   -0.026297   0.391241   0.003666  -0.020306   0.478738
 Mulliken atomic charges:
              1
     1  Si   1.060986
     2  O   -0.568690
     3  F   -0.314853
     4  F   -0.324573
     5  F   -0.313826
     6  H    0.249471
     7  C   -0.120694
     8  C   -0.204859
     9  H    0.184382
    10  H    0.177363
    11  H    0.175294
 Sum of Mulliken atomic charges =   0.00000
 Mulliken charges with hydrogens summed into heavy atoms:
              1
     1  Si   1.060986
     2  O   -0.319219
     3  F   -0.314853
     4  F   -0.324573
     5  F   -0.313826
     7  C    0.063688
     8  C    0.147798
 Sum of Mulliken charges with hydrogens summed into heavy atoms =   0.00000
          Atomic-Atomic Spin Densities.
              1          2          3          4          5          6
     1  Si   0.037034  -0.000444  -0.001514   0.000121  -0.001908   0.002191
     2  O   -0.000444   0.272447  -0.000152   0.000479  -0.000337  -0.045657
     3  F   -0.001514  -0.000152   0.007567   0.000023   0.000074  -0.000028
     4  F    0.000121   0.000479   0.000023   0.000227   0.000031  -0.000029
     5  F   -0.001908  -0.000337   0.000074   0.000031   0.009318  -0.000035
     6  H    0.002191  -0.045657  -0.000028  -0.000029  -0.000035  -0.005519
     7  C    0.001265  -0.051111  -0.000038  -0.000016  -0.000039   0.095648
     8  C   -0.000043   0.001197   0.000000   0.000000   0.000000  -0.003635
     9  H   -0.000262   0.011714   0.000005   0.000014   0.000008  -0.001735
    10  H   -0.000009  -0.000141   0.000000   0.000000   0.000000  -0.000041
    11  H    0.000011   0.000252   0.000000   0.000000   0.000000  -0.000048
              7          8          9         10         11
     1  Si   0.001265  -0.000043  -0.000262  -0.000009   0.000011
     2  O   -0.051111   0.001197   0.011714  -0.000141   0.000252
     3  F   -0.000038   0.000000   0.000005   0.000000   0.000000
     4  F   -0.000016   0.000000   0.000014   0.000000   0.000000
     5  F   -0.000039   0.000000   0.000008   0.000000   0.000000
     6  H    0.095648  -0.003635  -0.001735  -0.000041  -0.000048
     7  C    0.731934  -0.053222  -0.008109  -0.016514  -0.009731
     8  C   -0.053222  -0.127359  -0.003335   0.024990   0.009743
     9  H   -0.008109  -0.003335   0.086788  -0.005766   0.001782
    10  H   -0.016514   0.024990  -0.005766   0.070305  -0.010298
    11  H   -0.009731   0.009743   0.001782  -0.010298   0.046558
 Mulliken atomic spin densities:
              1
     1  Si   0.036441
     2  O    0.188245
     3  F    0.005937
     4  F    0.000850
     5  F    0.007112
     6  H    0.041113
     7  C    0.690067
     8  C   -0.151663
     9  H    0.081103
    10  H    0.062526
    11  H    0.038268
 Sum of Mulliken atomic spin densities =   1.00000
 Electronic spatial extent (au):  <R**2>=           2227.7179
 Charge=              0.0000 electrons
 Dipole moment (field-independent basis, Debye):
    X=              2.9277    Y=              5.0572    Z=              3.6749  Tot=              6.9030
 Quadrupole moment (field-independent basis, Debye-Ang):
   XX=            -53.8864   YY=            -25.5492   ZZ=            -43.4779
   XY=              3.5247   XZ=             -1.7432   YZ=              9.6644
 Traceless Quadrupole moment (field-independent basis, Debye-Ang):
   XX=            -12.9152   YY=             15.4220   ZZ=             -2.5067
   XY=              3.5247   XZ=             -1.7432   YZ=              9.6644
 Octapole moment (field-independent basis, Debye-Ang**2):
  XXX=            200.1805  YYY=            -68.8632  ZZZ=             89.7431  XYY=             71.5706
  XXY=            -62.5669  XXZ=             24.1631  XZZ=             65.1310  YZZ=            -35.6776
  YYZ=             59.0387  XYZ=              3.6491
 Hexadecapole moment (field-independent basis, Debye-Ang**3):
 XXXX=           -907.6917 YYYY=           -727.4300 ZZZZ=           -678.4556 XXXY=             41.3894
 XXXZ=           -268.9885 YYYX=             91.9231 YYYZ=            -45.5651 ZZZX=           -241.1551
 ZZZY=           -107.5493 XXYY=           -332.7773 XXZZ=           -263.4521 YYZZ=           -214.5829
 XXYZ=            -73.2507 YYXZ=            -54.3654 ZZXY=             29.9424
 N-N= 3.773890443618D+02 E-N=-3.770144766250D+03  KE= 1.108282454991D+03
                          Isotropic Fermi Contact Couplings
        Atom                 a.u.       MegaHertz       Gauss      10(-4) cm-1
     1  Si(29)             0.07719     -68.60500     -24.47997     -22.88417
     2  O(17)              0.26988    -163.60224     -58.37735     -54.57183
     3  F(19)              0.00155       6.53894       2.33326       2.18116
     4  F(19)             -0.00119      -4.99982      -1.78406      -1.66776
     5  F(19)              0.00220       9.26136       3.30468       3.08926
     6  H(1)               0.00823      36.80605      13.13331      12.27718
     7  C(13)              0.21272     239.14265      85.33204      79.76940
     8  C(13)             -0.02162     -24.30005      -8.67086      -8.10562
     9  H(1)               0.03898     174.25484      62.17846      58.12516
    10  H(1)               0.03001     134.12077      47.85762      44.73787
    11  H(1)               0.01901      84.98294      30.32403      28.34726
 --------------------------------------------------------
       Center         ----  Spin Dipole Couplings  ----
                      3XX-RR        3YY-RR        3ZZ-RR
 --------------------------------------------------------
     1   Atom       -0.056148     -0.030542      0.086690
     2   Atom        0.007177      0.233324     -0.240502
     3   Atom       -0.025286      0.024552      0.000733
     4   Atom       -0.005071     -0.004306      0.009377
     5   Atom        0.019696     -0.025047      0.005351
     6   Atom       -0.033034      0.020533      0.012502
     7   Atom       -0.201048      0.581374     -0.380326
     8   Atom       -0.095046      0.052962      0.042084
     9   Atom       -0.041247     -0.023604      0.064851
    10   Atom       -0.008512      0.007841      0.000671
    11   Atom       -0.009487     -0.003805      0.013292
 --------------------------------------------------------
                        XY            XZ            YZ
 --------------------------------------------------------
     1   Atom        0.018969      0.038717      0.071959
     2   Atom        0.507183      0.258789      0.322633
     3   Atom       -0.007100     -0.004853      0.036751
     4   Atom        0.001871     -0.003371     -0.002684
     5   Atom        0.017465      0.042551      0.014878
     6   Atom        0.081239      0.080814      0.113912
     7   Atom        0.253165     -0.077995     -0.252681
     8   Atom        0.100433      0.015793      0.018718
     9   Atom        0.006354     -0.001894     -0.011717
    10   Atom        0.003972      0.002978      0.004950
    11   Atom        0.002381      0.007029      0.009320
 --------------------------------------------------------


 ---------------------------------------------------------------------------------
              Anisotropic Spin Dipole Couplings in Principal Axis System
 ---------------------------------------------------------------------------------

       Atom             a.u.   MegaHertz   Gauss  10(-4) cm-1        Axes

              Baa    -0.0663     7.029     2.508     2.344  0.9251 -0.3753 -0.0576
     1 Si(29) Bbb    -0.0646     6.850     2.444     2.285  0.3061  0.8269 -0.4717
              Bcc     0.1308   -13.878    -4.952    -4.629  0.2247  0.4188  0.8799
 
              Baa    -0.4043    29.257    10.440     9.759 -0.2491 -0.2722  0.9295
     2 O(17)  Bbb    -0.3994    28.899    10.312     9.640  0.7745 -0.6322  0.0224
              Bcc     0.8037   -58.156   -20.751   -19.399  0.5815  0.7254  0.3683
 
              Baa    -0.0264   -13.255    -4.730    -4.421  0.8456  0.3847 -0.3700
     3 F(19)  Bbb    -0.0258   -12.975    -4.630    -4.328  0.5223 -0.4533  0.7224
              Bcc     0.0522    26.230     9.360     8.750 -0.1102  0.8041  0.5842
 
              Baa    -0.0067    -3.350    -1.195    -1.118  0.8235 -0.5618  0.0790
     4 F(19)  Bbb    -0.0041    -2.042    -0.729    -0.681  0.5200  0.8031  0.2907
              Bcc     0.0107     5.392     1.924     1.799 -0.2268 -0.1983  0.9535
 
              Baa    -0.0311   -15.632    -5.578    -5.214 -0.0878  0.9540 -0.2867
     5 F(19)  Bbb    -0.0306   -15.375    -5.486    -5.129 -0.6690  0.1568  0.7266
              Bcc     0.0617    31.007    11.064    10.343  0.7381  0.2556  0.6244
 
              Baa    -0.0979   -52.217   -18.632   -17.418 -0.2262 -0.5903  0.7749
     6 H(1)   Bbb    -0.0916   -48.889   -17.445   -16.307  0.8598 -0.4948 -0.1260
              Bcc     0.1895   101.106    36.077    33.725  0.4578  0.6377  0.6195
 
              Baa    -0.4439   -59.573   -21.257   -19.872  0.0841  0.2188  0.9721
     7 C(13)  Bbb    -0.2758   -37.004   -13.204   -12.343  0.9574 -0.2881 -0.0180
              Bcc     0.7197    96.578    34.461    32.215  0.2761  0.9323 -0.2337
 
              Baa    -0.1460   -19.587    -6.989    -6.534  0.8934 -0.4482 -0.0304
     8 C(13)  Bbb     0.0341     4.576     1.633     1.527 -0.1195 -0.3024  0.9457
              Bcc     0.1119    15.011     5.356     5.007  0.4330  0.8413  0.3237
 
              Baa    -0.0433   -23.118    -8.249    -7.711  0.9486 -0.3160 -0.0176
     9 H(1)   Bbb    -0.0231   -12.334    -4.401    -4.114  0.3155  0.9397  0.1320
              Bcc     0.0664    35.452    12.650    11.825 -0.0251 -0.1307  0.9911
 
              Baa    -0.0098    -5.223    -1.864    -1.742  0.9666 -0.1621 -0.1985
    10 H(1)   Bbb    -0.0018    -0.947    -0.338    -0.316  0.0966 -0.4869  0.8681
              Bcc     0.0116     6.170     2.202     2.058  0.2373  0.8583  0.4549
 
              Baa    -0.0115    -6.134    -2.189    -2.046  0.9543  0.0596 -0.2930
    11 H(1)   Bbb    -0.0078    -4.158    -1.484    -1.387 -0.1656  0.9212 -0.3520
              Bcc     0.0193    10.292     3.673     3.433  0.2490  0.3844  0.8890
 

 ---------------------------------------------------------------------------------

 No NMR shielding tensors so no spin-rotation constants.
 Leave Link  601 at Sat May 13 17:40:38 2017, MaxMem=   33554432 cpu:       3.7
 (Enter /share/apps/gaussian09/g09/l701.exe)
 Compute integral first derivatives.
 ... and contract with generalized density number  0.
 R6Disp: Adding dispersion energy 1st derivatives to the gradient.
 PrsmSu:  requested number of processors reduced to:  10 ShMem   1 Linda.
 Leave Link  701 at Sat May 13 17:40:39 2017, MaxMem=   33554432 cpu:       2.4
 (Enter /share/apps/gaussian09/g09/l702.exe)
 L702 exits ... SP integral derivatives will be done elsewhere.
 Leave Link  702 at Sat May 13 17:40:39 2017, MaxMem=   33554432 cpu:       0.2
 (Enter /share/apps/gaussian09/g09/l703.exe)
 Compute integral first derivatives, UseDBF=F ICtDFT=           0.
 Integral derivatives from FoFDir, PRISM(SPDF).
 Calling FoFJK, ICntrl=      2127 FMM=F ISym2X=0 I1Cent= 0 IOpClX= 1 NMat=1 NMatS=1 NMatT=0.
 FoFJK:  IHMeth= 1 ICntrl=  2127 DoSepK=T KAlg= 1 I1Cent= 0 FoldK=F
 FoFCou: FMM=F IPFlag=           0 FMFlag=      100000 FMFlg1=         800
         NFxFlg=           0 DoJE=F BraDBF=F KetDBF=F FulRan=T
         Omega=  0.000000  0.000000  1.000000  0.000000  0.000000 ICntrl=    2527 IOpCl=  0
         NMat0=    1 NMatS0=    1 NMatT0=    0 NMatD0=    1 NMtDS0=    0 NMtDT0=    0
         I1Cent=           0 NGrid=           0.
 Symmetry not used in FoFCou.
 Leave Link  703 at Sat May 13 17:40:42 2017, MaxMem=   33554432 cpu:      38.7
 (Enter /share/apps/gaussian09/g09/l716.exe)
 Dipole        = 1.15184615D+00 1.98967029D+00 1.44580993D+00
 -------------------------------------------------------------------
 Center     Atomic                   Forces (Hartrees/Bohr)
 Number     Number              X              Y              Z
 -------------------------------------------------------------------
      1       14           0.016946862    0.023047097    0.030031340
      2        8           0.011162749    0.018651928    0.022468890
      3        9          -0.003191470    0.000345391   -0.002138781
      4        9           0.001868105    0.000085984   -0.015148067
      5        9          -0.000654457   -0.003129624    0.000033736
      6        1          -0.036110535   -0.056903559   -0.025680413
      7        6           0.020383415    0.058907019    0.004822229
      8        6          -0.011402400   -0.032201627    0.000419832
      9        1           0.003694361   -0.002151991   -0.001666469
     10        1          -0.003417890   -0.007420150   -0.005849232
     11        1           0.000721260    0.000769533   -0.007293064
 -------------------------------------------------------------------
 Cartesian Forces:  Max     0.058907019 RMS     0.020157978
 Leave Link  716 at Sat May 13 17:40:42 2017, MaxMem=   33554432 cpu:       0.3
 (Enter /share/apps/gaussian09/g09/l103.exe)

 GradGradGradGradGradGradGradGradGradGradGradGradGradGradGradGradGradGrad
 Berny optimization.
 Internal  Forces:  Max     0.058072094 RMS     0.013631065
 Search for a local minimum.
 Step number   1 out of a maximum of   53
 All quantities printed in internal units (Hartrees-Bohrs-Radians)
 RMS Force = .11711D-01 SwitMx=.10000D-02 MixMth= 1
 Mixed Optimization -- RFO/linear search
 Second derivative matrix not updated -- first step.
 ITU=  0
     Eigenvalues ---    0.00230   0.00230   0.00230   0.02487   0.03069
     Eigenvalues ---    0.03069   0.04133   0.15717   0.16000   0.16000
     Eigenvalues ---    0.16000   0.16000   0.21737   0.22492   0.33874
     Eigenvalues ---    0.33875   0.33875   0.34488   0.41955   0.43109
     Eigenvalues ---    0.48324   0.604811000.000001000.000001000.00000
     Eigenvalues --- 1000.000001000.000001000.000001000.000001000.00000
     Eigenvalues --- 1000.000001000.000001000.000001000.000001000.00000
     Eigenvalues --- 1000.000001000.000001000.000001000.000001000.00000
     Eigenvalues --- 1000.000001000.000001000.00000
 RFO step:  Lambda=-1.63802353D-02 EMin= 2.30000000D-03
 Linear search not attempted -- first point.
 Iteration  1 RMS(Cart)=  0.25619794 RMS(Int)=  0.01564173
 Iteration  2 RMS(Cart)=  0.03629159 RMS(Int)=  0.00401756
 Iteration  3 RMS(Cart)=  0.00054674 RMS(Int)=  0.00400715
 Iteration  4 RMS(Cart)=  0.00000990 RMS(Int)=  0.00400715
 Iteration  5 RMS(Cart)=  0.00000008 RMS(Int)=  0.00400715
 Iteration  1 RMS(Cart)=  0.00002320 RMS(Int)=  0.00000004
 Iteration  2 RMS(Cart)=  0.00000000 RMS(Int)=  0.00000004
 Variable       Old X    -DE/DX   Delta X   Delta X   Delta X     New X
                                 (Linear)    (Quad)   (Total)
    X3       -2.41524  -0.00232   0.00000   0.00000   0.00000  -2.41524
    Y3       -2.35344   0.00182   0.00000   0.00000   0.00000  -2.35344
    Z3       -2.33320  -0.00027   0.00000   0.00000   0.00000  -2.33320
    X4       -2.50856   0.00117   0.00000   0.00000   0.00000  -2.50856
    Y4        1.83850   0.00016   0.00000   0.00000   0.00000   1.83850
    Z4       -4.94327  -0.00056   0.00000   0.00000   0.00000  -4.94327
    X5       -6.49437   0.00115   0.00000   0.00000   0.00000  -6.49437
    Y5        0.42710  -0.00198   0.00000   0.00000   0.00000   0.42710
    Z5       -2.50663   0.00083   0.00000   0.00000   0.00000  -2.50663
    R1        3.05296  -0.02577   0.00000  -0.05157  -0.05157   3.00138
    R2        3.05382   0.00106   0.00000   0.00957   0.00983   3.06365
    R3        3.02945   0.01251   0.00000   0.02805   0.02833   3.05779
    R4        3.04869   0.00187   0.00000   0.00982   0.00995   3.05864
    R5        2.45664  -0.05807   0.00000   0.00000   0.00000   2.45664
    R6        2.45664   0.01423   0.00000   0.00000   0.00000   2.45664
    R7        2.50562  -0.03611   0.00000  -0.05813  -0.05813   2.44749
    R8        2.07542   0.00124   0.00000   0.00343   0.00335   2.07876
    R9        2.07542  -0.00739   0.00000  -0.02081  -0.02081   2.05462
   R10        2.07542  -0.00722   0.00000  -0.02034  -0.02034   2.05507
    A1        1.94994   0.00123   0.00000  -0.00376  -0.00405   1.94589
    A2        1.89939   0.01618   0.00000   0.05830   0.05806   1.95745
    A3        1.96593  -0.00139   0.00000  -0.01322  -0.01337   1.95256
    A4        1.89477  -0.00694   0.00000  -0.01718  -0.01723   1.87755
    A5        1.88645  -0.00413   0.00000  -0.00876  -0.00888   1.87757
    A6        1.86429  -0.00563   0.00000  -0.01677  -0.01676   1.84753
    A7        2.75235  -0.01730   0.00000  -0.09811  -0.09811   2.65425
    A8        2.69615  -0.03004   0.00000  -0.17057  -0.17040   2.52574
    A9        1.42184   0.01370   0.00000   0.08084   0.08136   1.50320
   A10        2.14183   0.01526   0.00000   0.09253   0.09547   2.23730
   A11        2.14180  -0.00850   0.00000  -0.04820  -0.04820   2.09359
   A12        2.14183   0.00291   0.00000   0.01648   0.01648   2.15831
   A13        1.99956   0.00560   0.00000   0.03172   0.03172   2.03128
   A14        3.08275   0.00113   0.00000   0.12899   0.13156   3.21430
   A15        3.09265  -0.00201   0.00000   0.00261   0.00858   3.10123
    D1        2.09196   0.00272   0.00000   0.01231   0.01244   2.10440
    D2        0.00000  -0.00002   0.00000  -0.00219  -0.00240  -0.00240
    D3       -2.06391  -0.00278   0.00000  -0.01153  -0.01146  -2.07537
    D4        2.86287   0.00492   0.00000   0.10164   0.08577   2.94865
    D5        0.07905  -0.00429   0.00000  -0.06812  -0.05226   0.02678
    D6       -2.78233  -0.00003   0.00000  -0.02804  -0.03386  -2.81620
    D7        0.35927   0.00013   0.00000  -0.02462  -0.03044   0.32882
    D8        0.00000   0.00086   0.00000   0.04574   0.05156   0.05156
    D9       -3.14159   0.00102   0.00000   0.04916   0.05498  -3.08661
         Item               Value     Threshold  Converged?
 Maximum Force            0.036110     0.000015     NO 
 RMS     Force            0.011711     0.000010     NO 
 Maximum Displacement     0.911447     0.000060     NO 
 RMS     Displacement     0.275675     0.000040     NO 
 Predicted change in Energy=-8.898633D-03
 GradGradGradGradGradGradGradGradGradGradGradGradGradGradGradGradGradGrad

 Leave Link  103 at Sat May 13 17:40:42 2017, MaxMem=   33554432 cpu:       0.8
 (Enter /share/apps/gaussian09/g09/l202.exe)
                          Input orientation:                          
 ---------------------------------------------------------------------
 Center     Atomic      Atomic             Coordinates (Angstroms)
 Number     Number       Type             X           Y           Z
 ---------------------------------------------------------------------
      1         14           0       -1.821470    0.282047   -1.238557
      2          8           0       -1.325893    1.079203    0.042665
      3          9           0       -1.278088   -1.245385   -1.234675
      4          9           0       -1.327473    0.972893   -2.615868
      5          9           0       -3.436673    0.226010   -1.326451
      6          1           0       -0.688268    2.059937    0.609759
      7          6           0       -0.100291    3.019033    1.261232
      8          6           0        0.056928    3.565089    2.425075
      9          1           0        0.143292    3.439377    0.274290
     10          1           0        0.433119    4.582354    2.501097
     11          1           0       -0.165137    3.060641    3.362557
 ---------------------------------------------------------------------
                    Distance matrix (angstroms):
                    1          2          3          4          5
     1  Si   0.000000
     2  O    1.588264   0.000000
     3  F    1.621212   2.652846   0.000000
     4  F    1.618111   2.660658   2.613597   0.000000
     5  F    1.618563   2.656654   2.613985   2.582471   0.000000
     6  H    2.803802   1.300000   3.830793   3.463367   3.829612
     7  C    4.086868   2.598066   5.079569   4.552425   5.062463
     8  C    5.265828   3.710486   6.190049   5.834994   6.117896
     9  H    4.014689   2.789727   5.122919   4.074274   5.069936
    10  H    6.128688   4.627103   7.130692   6.504708   6.971596
    11  H    5.624435   4.036723   6.396488   6.438267   6.381604
                    6          7          8          9         10
     6  H    0.000000
     7  C    1.300000   0.000000
     8  C    2.473090   1.295155   0.000000
     9  H    1.645262   1.100035   2.156186   0.000000
    10  H    3.346230   2.065373   1.087257   2.519735   0.000000
    11  H    2.975394   2.102737   1.087499   3.126653   1.848144
                   11
    11  H    0.000000
 Symmetry turned off by external request.
 Stoichiometry    C2H4F3OSi(2)
 Framework group  C1[X(C2H4F3OSi)]
 Deg. of freedom    27
 Full point group                 C1      NOp   1
 Rotational constants (GHZ):      3.7676292      0.7985765      0.7932019
 Leave Link  202 at Sat May 13 17:40:42 2017, MaxMem=   33554432 cpu:       0.1
 (Enter /share/apps/gaussian09/g09/l301.exe)
 Basis read from rwf:  (5D, 7F)
 No pseudopotential information found on rwf file.
 Integral buffers will be    131072 words long.
 Raffenetti 2 integral format.
 Two-electron integral symmetry is turned off.
   130 basis functions,   250 primitive gaussians,   134 cartesian basis functions
    33 alpha electrons       32 beta electrons
       nuclear repulsion energy       378.9054391667 Hartrees.
 IExCor= 4639 DFT=T Ex+Corr=wB97XD ExCW=0 ScaHFX=  1.000000
 ScaDFX=  1.000000  1.000000  1.000000  1.000000 ScalE2=  1.000000  1.000000
 IRadAn=      5 IRanWt=     -1 IRanGd=            0 ICorTp=0
  HFx wShort=  0.000000 wLong=  0.200000 cFull=  0.222036 cShort=  0.000000 cLong=  0.777964
  DFx wShort=  0.000000 wLong=  0.200000 cFull=  0.000000 cShort=  0.000000 cLong=  1.000000
 NAtoms=   11 NActive=   11 NUniq=   11 SFac= 1.00D+00 NAtFMM=   60 NAOKFM=F Big=F
 R6Disp: Dispersion energy =        -0.0029377046 Hartrees.
 Nuclear repulsion after empirical dispersion term =      378.9025014620 Hartrees.
 No density basis found on file   724.
 Leave Link  301 at Sat May 13 17:40:42 2017, MaxMem=   33554432 cpu:       0.6
 (Enter /share/apps/gaussian09/g09/l302.exe)
 NPDir=0 NMtPBC=     1 NCelOv=     1 NCel=       1 NClECP=     1 NCelD=      1
         NCelK=      1 NCelE2=     1 NClLst=     1 CellRange=     0.0.
 One-electron integrals computed using PRISM.
 PrsmSu:  requested number of processors reduced to:  10 ShMem   1 Linda.
 NBasis=   130 RedAO= T  NBF=   130
 NBsUse=   130 1.00D-06 NBFU=   130
 Precomputing XC quadrature grid using
 IXCGrd= 2 IRadAn=           5 IRanWt=          -1 IRanGd=           0 AccXCQ= 0.00D+00.
 NRdTot=     924 NPtTot=      248910 NUsed=      255534 NTot=      255566
 NSgBfM=   132   132   132   132   132 NAtAll=    11    11.
 Leave Link  302 at Sat May 13 17:40:43 2017, MaxMem=   33554432 cpu:       2.3
 (Enter /share/apps/gaussian09/g09/l303.exe)
 DipDrv:  MaxL=1.
 Leave Link  303 at Sat May 13 17:40:43 2017, MaxMem=   33554432 cpu:       0.4
 (Enter /share/apps/gaussian09/g09/l401.exe)
 Initial guess read from the read-write file.
 B after Tr=     0.000000    0.000000    0.000000
         Rot=    1.000000    0.000000    0.000000    0.000000 Ang=   0.00 deg.
 Guess basis will be translated and rotated to current coordinates.
 Initial guess <Sx>= 0.0000 <Sy>= 0.0000 <Sz>= 0.5000 <S**2>= 0.7633 S= 0.5066
 Generating alternative initial guess.
 Harris functional with IExCor= 4639 diagonalized for initial guess.
 ExpMin= 7.01D-02 ExpMax= 4.48D+04 ExpMxC= 1.53D+03 IAcc=3 IRadAn=         5 AccDes= 0.00D+00
 HarFok:  IExCor= 4639 AccDes= 0.00D+00 IRadAn=         5 IDoV= 1
 ScaDFX=  1.000000  1.000000  1.000000  1.000000
 FoFCou: FMM=F IPFlag=           0 FMFlag=      100000 FMFlg1=           0
         NFxFlg=           0 DoJE=T BraDBF=F KetDBF=T FulRan=T
         Omega=  0.000000  0.000000  1.000000  0.000000  0.000000 ICntrl=     500 IOpCl=  0
         NMat0=    1 NMatS0=    1 NMatT0=    0 NMatD0=    1 NMtDS0=    0 NMtDT0=    0
         I1Cent=           4 NGrid=           0.
 Symmetry not used in FoFCou.
 Harris En= -721.667071183884    
 Leave Link  401 at Sat May 13 17:40:43 2017, MaxMem=   33554432 cpu:       7.6
 (Enter /share/apps/gaussian09/g09/l502.exe)
 UHF open shell SCF:
 Requested convergence on RMS density matrix=1.00D-08 within 128 cycles.
 Requested convergence on MAX density matrix=1.00D-06.
 Requested convergence on             energy=1.00D-06.
 No special actions if energy rises.
 Using DIIS extrapolation, IDIIS=  1040.
 Two-electron integral symmetry not used.
       255422 words used for storage of precomputed grid.
 IEnd=      329870 IEndB=      329870 NGot=    33554432 MDV=    33259293
 LenX=    33259293 LenY=    33240896
 Fock matrices will be formed incrementally for  20 cycles.
 Integral accuracy reduced to 1.0D-05 until final iterations.

 Cycle   1  Pass 0  IDiag  1:
 FoFJK:  IHMeth= 1 ICntrl=     0 DoSepK=T KAlg= 1 I1Cent= 0 FoldK=F
 FoFCou: FMM=F IPFlag=           0 FMFlag=      100000 FMFlg1=           0
         NFxFlg=           0 DoJE=T BraDBF=F KetDBF=F FulRan=T
         Omega=  0.000000  0.000000  1.000000  0.000000  0.000000 ICntrl=     500 IOpCl=  0
         NMat0=    1 NMatS0=    1 NMatT0=    0 NMatD0=    1 NMtDS0=    0 NMtDT0=    0
         I1Cent=           0 NGrid=           0.
 Symmetry not used in FoFCou.
 E= -742.784702932389    
 DIIS: error= 1.27D-02 at cycle   1 NSaved=   1.
 NSaved= 1 IEnMin= 1 EnMin= -742.784702932389     IErMin= 1 ErrMin= 1.27D-02
 ErrMax= 1.27D-02 EMaxC= 1.00D-01 BMatC= 8.30D-02 BMatP= 8.30D-02
 IDIUse=3 WtCom= 8.73D-01 WtEn= 1.27D-01
 Coeff-Com:  0.100D+01
 Coeff-En:   0.100D+01
 Coeff:      0.100D+01
 Recover alternate guess density for next cycle.
 RMSDP=5.51D-03 MaxDP=1.31D-01              OVMax= 0.00D+00

 Cycle   2  Pass 0  IDiag  1:
 RMSU=  3.95D-03    CP:  9.93D-01
 FoFJK:  IHMeth= 1 ICntrl=     0 DoSepK=T KAlg= 1 I1Cent= 0 FoldK=F
 E= -742.578147113786     Delta-E=        0.206555818603 Rises=F Damp=F
 Switch densities from cycles 1 and 2 for lowest energy.
 DIIS: error= 6.27D-02 at cycle   2 NSaved=   2.
 NSaved= 2 IEnMin= 1 EnMin= -742.784702932389     IErMin= 1 ErrMin= 1.27D-02
 ErrMax= 6.27D-02 EMaxC= 1.00D+00 BMatC= 3.34D+00 BMatP= 8.30D-02
 IDIUse=1 WtCom= 1.00D+00 WtEn= 0.00D+00
 Coeff-Com:  0.972D+00 0.275D-01
 Coeff:      0.972D+00 0.275D-01
 Gap=     0.430 Goal=   None    Shift=    0.000
 Gap=     0.258 Goal=   None    Shift=    0.000
 RMSDP=2.89D-02 MaxDP=1.08D+00 DE= 2.07D-01 OVMax= 1.36D-01

 Cycle   3  Pass 0  IDiag  1:
 RMSU=  9.57D-04    CP:  9.99D-01  7.18D-02
 FoFJK:  IHMeth= 1 ICntrl=     0 DoSepK=T KAlg= 1 I1Cent= 0 FoldK=F
 E= -742.813726979881     Delta-E=       -0.235579866095 Rises=F Damp=F
 DIIS: error= 2.27D-03 at cycle   3 NSaved=   3.
 NSaved= 3 IEnMin= 3 EnMin= -742.813726979881     IErMin= 3 ErrMin= 2.27D-03
 ErrMax= 2.27D-03 EMaxC= 1.00D+00 BMatC= 3.45D-03 BMatP= 8.30D-02
 IDIUse=1 WtCom= 1.00D+00 WtEn= 0.00D+00
 Coeff-Com: -0.123D+00 0.939D-02 0.111D+01
 Coeff:     -0.123D+00 0.939D-02 0.111D+01
 Gap=     0.425 Goal=   None    Shift=    0.000
 Gap=     0.257 Goal=   None    Shift=    0.000
 RMSDP=3.80D-04 MaxDP=4.73D-03 DE=-2.36D-01 OVMax= 2.11D-02

 Cycle   4  Pass 0  IDiag  1:
 RMSU=  1.83D-04    CP:  9.98D-01  1.05D-01  1.17D+00
 FoFJK:  IHMeth= 1 ICntrl=     0 DoSepK=T KAlg= 1 I1Cent= 0 FoldK=F
 E= -742.815457873383     Delta-E=       -0.001730893503 Rises=F Damp=F
 DIIS: error= 1.10D-03 at cycle   4 NSaved=   4.
 NSaved= 4 IEnMin= 4 EnMin= -742.815457873383     IErMin= 4 ErrMin= 1.10D-03
 ErrMax= 1.10D-03 EMaxC= 1.00D+00 BMatC= 1.10D-03 BMatP= 3.45D-03
 IDIUse=1 WtCom= 1.00D+00 WtEn= 0.00D+00
 Coeff-Com: -0.701D-01 0.993D-03 0.426D+00 0.643D+00
 Coeff:     -0.701D-01 0.993D-03 0.426D+00 0.643D+00
 Gap=     0.429 Goal=   None    Shift=    0.000
 Gap=     0.260 Goal=   None    Shift=    0.000
 RMSDP=1.02D-04 MaxDP=2.09D-03 DE=-1.73D-03 OVMax= 5.87D-03

 Cycle   5  Pass 0  IDiag  1:
 RMSU=  6.98D-05    CP:  9.98D-01  1.04D-01  1.19D+00  9.78D-01
 FoFJK:  IHMeth= 1 ICntrl=     0 DoSepK=T KAlg= 1 I1Cent= 0 FoldK=F
 E= -742.815733187192     Delta-E=       -0.000275313809 Rises=F Damp=F
 DIIS: error= 9.26D-04 at cycle   5 NSaved=   5.
 NSaved= 5 IEnMin= 5 EnMin= -742.815733187192     IErMin= 5 ErrMin= 9.26D-04
 ErrMax= 9.26D-04 EMaxC= 1.00D+00 BMatC= 1.59D-04 BMatP= 1.10D-03
 IDIUse=1 WtCom= 1.00D+00 WtEn= 0.00D+00
 Coeff-Com: -0.676D-02-0.747D-03-0.193D-01 0.211D+00 0.816D+00
 Coeff:     -0.676D-02-0.747D-03-0.193D-01 0.211D+00 0.816D+00
 Gap=     0.427 Goal=   None    Shift=    0.000
 Gap=     0.258 Goal=   None    Shift=    0.000
 RMSDP=6.71D-05 MaxDP=1.42D-03 DE=-2.75D-04 OVMax= 6.21D-03

 Cycle   6  Pass 0  IDiag  1:
 RMSU=  2.69D-05    CP:  9.98D-01  1.06D-01  1.20D+00  1.17D+00  1.09D+00
 FoFJK:  IHMeth= 1 ICntrl=     0 DoSepK=T KAlg= 1 I1Cent= 0 FoldK=F
 E= -742.815818652843     Delta-E=       -0.000085465651 Rises=F Damp=F
 DIIS: error= 4.50D-04 at cycle   6 NSaved=   6.
 NSaved= 6 IEnMin= 6 EnMin= -742.815818652843     IErMin= 6 ErrMin= 4.50D-04
 ErrMax= 4.50D-04 EMaxC= 1.00D+00 BMatC= 5.93D-05 BMatP= 1.59D-04
 IDIUse=1 WtCom= 1.00D+00 WtEn= 0.00D+00
 Coeff-Com:  0.128D-01-0.306D-03-0.105D+00-0.721D-01 0.388D+00 0.777D+00
 Coeff:      0.128D-01-0.306D-03-0.105D+00-0.721D-01 0.388D+00 0.777D+00
 Gap=     0.429 Goal=   None    Shift=    0.000
 Gap=     0.260 Goal=   None    Shift=    0.000
 RMSDP=4.26D-05 MaxDP=6.36D-04 DE=-8.55D-05 OVMax= 3.82D-03

 Cycle   7  Pass 0  IDiag  1:
 RMSU=  1.91D-05    CP:  9.98D-01  1.07D-01  1.21D+00  1.24D+00  1.36D+00
                    CP:  1.16D+00
 FoFJK:  IHMeth= 1 ICntrl=     0 DoSepK=T KAlg= 1 I1Cent= 0 FoldK=F
 E= -742.815856241448     Delta-E=       -0.000037588605 Rises=F Damp=F
 DIIS: error= 2.88D-04 at cycle   7 NSaved=   7.
 NSaved= 7 IEnMin= 7 EnMin= -742.815856241448     IErMin= 7 ErrMin= 2.88D-04
 ErrMax= 2.88D-04 EMaxC= 1.00D+00 BMatC= 7.49D-06 BMatP= 5.93D-05
 IDIUse=1 WtCom= 1.00D+00 WtEn= 0.00D+00
 Coeff-Com:  0.232D-02 0.624D-04-0.225D-02-0.634D-01-0.130D+00 0.505D-01
 Coeff-Com:  0.114D+01
 Coeff:      0.232D-02 0.624D-04-0.225D-02-0.634D-01-0.130D+00 0.505D-01
 Coeff:      0.114D+01
 Gap=     0.429 Goal=   None    Shift=    0.000
 Gap=     0.260 Goal=   None    Shift=    0.000
 RMSDP=3.24D-05 MaxDP=6.21D-04 DE=-3.76D-05 OVMax= 4.53D-03

 Cycle   8  Pass 0  IDiag  1:
 RMSU=  8.80D-06    CP:  9.98D-01  1.07D-01  1.21D+00  1.27D+00  1.51D+00
                    CP:  1.54D+00  1.64D+00
 FoFJK:  IHMeth= 1 ICntrl=     0 DoSepK=T KAlg= 1 I1Cent= 0 FoldK=F
 E= -742.815870673310     Delta-E=       -0.000014431862 Rises=F Damp=F
 DIIS: error= 1.62D-04 at cycle   8 NSaved=   8.
 NSaved= 8 IEnMin= 8 EnMin= -742.815870673310     IErMin= 8 ErrMin= 1.62D-04
 ErrMax= 1.62D-04 EMaxC= 1.00D+00 BMatC= 3.16D-06 BMatP= 7.49D-06
 IDIUse=1 WtCom= 1.00D+00 WtEn= 0.00D+00
 Coeff-Com: -0.232D-02 0.140D-03 0.239D-01-0.977D-02-0.121D+00-0.181D+00
 Coeff-Com:  0.430D+00 0.860D+00
 Coeff:     -0.232D-02 0.140D-03 0.239D-01-0.977D-02-0.121D+00-0.181D+00
 Coeff:      0.430D+00 0.860D+00
 Gap=     0.429 Goal=   None    Shift=    0.000
 Gap=     0.260 Goal=   None    Shift=    0.000
 RMSDP=1.90D-05 MaxDP=3.25D-04 DE=-1.44D-05 OVMax= 2.67D-03

 Cycle   9  Pass 0  IDiag  1:
 RMSU=  4.70D-06    CP:  9.98D-01  1.06D-01  1.21D+00  1.28D+00  1.59D+00
                    CP:  1.70D+00  2.13D+00  1.41D+00
 FoFJK:  IHMeth= 1 ICntrl=     0 DoSepK=T KAlg= 1 I1Cent= 0 FoldK=F
 E= -742.815875280578     Delta-E=       -0.000004607268 Rises=F Damp=F
 DIIS: error= 1.10D-04 at cycle   9 NSaved=   9.
 NSaved= 9 IEnMin= 9 EnMin= -742.815875280578     IErMin= 9 ErrMin= 1.10D-04
 ErrMax= 1.10D-04 EMaxC= 1.00D+00 BMatC= 9.63D-07 BMatP= 3.16D-06
 IDIUse=1 WtCom= 1.00D+00 WtEn= 0.00D+00
 Coeff-Com: -0.145D-02-0.227D-04 0.874D-02 0.142D-01 0.106D-01-0.914D-01
 Coeff-Com: -0.188D+00 0.155D+00 0.109D+01
 Coeff:     -0.145D-02-0.227D-04 0.874D-02 0.142D-01 0.106D-01-0.914D-01
 Coeff:     -0.188D+00 0.155D+00 0.109D+01
[...]
      5          9           0       -3.436673    0.226010   -1.326451
      6          1           0       -1.799406    2.223645    0.120479
      7          6           0       -2.381082    3.344890   -0.186870
      8          6           0       -3.662309    3.315375   -0.436274
      9          1           0       -1.643932    4.138183   -0.168280
     10          1           0       -4.208449    4.240573   -0.606509
     11          1           0       -4.226549    2.390127   -0.470752
 ---------------------------------------------------------------------
                    Distance matrix (angstroms):
                    1          2          3          4          5
     1  Si   0.000000
     2  O    1.621826   0.000000
     3  F    1.611995   2.633105   0.000000
     4  F    1.616239   2.711526   2.613597   0.000000
     5  F    1.624106   2.695420   2.613985   2.582471   0.000000
     6  H    2.378559   1.300000   3.760636   3.045438   2.960540
     7  C    3.295794   2.576453   4.835816   3.554784   3.484298
     8  C    3.648074   3.337540   5.207925   3.960973   3.222965
     9  H    4.014010   3.141791   5.500349   4.013713   4.456498
    10  H    4.675630   4.396235   6.251188   4.797424   4.150985
    11  H    3.299286   3.285303   4.742779   3.874883   2.457545
                    6          7          8          9         10
     6  H    0.000000
     7  C    1.300000   0.000000
     8  C    2.229855   1.305610   0.000000
     9  H    1.942423   1.083073   2.196060   0.000000
    10  H    3.224903   2.077888   1.087769   2.603704   0.000000
    11  H    2.503656   2.097119   1.084268   3.133224   1.855507
                   11
    11  H    0.000000
 Symmetry turned off by external request.
 Stoichiometry    C2H4F3OSi(2)
 Framework group  C1[X(C2H4F3OSi)]
 Deg. of freedom    27
 Full point group                 C1      NOp   1
 Rotational constants (GHZ):      3.4841538      1.2864462      1.2442824
 Leave Link  202 at Sat May 13 17:58:48 2017, MaxMem=   33554432 cpu:       0.1
 (Enter /share/apps/gaussian09/g09/l601.exe)
 Copying SCF densities to generalized density rwf, IOpCl= 1 IROHF=0.

 **********************************************************************

            Population analysis using the SCF density.

 **********************************************************************

 Alpha  occ. eigenvalues --  -66.43403 -24.83978 -24.83728 -24.83612 -19.30041
 Alpha  occ. eigenvalues --  -10.35680 -10.33199  -5.52926  -3.87593  -3.87533
 Alpha  occ. eigenvalues --   -3.87317  -1.33036  -1.30408  -1.30207  -1.11827
 Alpha  occ. eigenvalues --   -0.92219  -0.72956  -0.67450  -0.63395  -0.59952
 Alpha  occ. eigenvalues --   -0.59638  -0.58931  -0.57291  -0.54859  -0.54464
 Alpha  occ. eigenvalues --   -0.53189  -0.52413  -0.52096  -0.50545  -0.49494
 Alpha  occ. eigenvalues --   -0.45004  -0.41687  -0.39919
 Alpha virt. eigenvalues --    0.03005   0.09852   0.12892   0.14623   0.17000
 Alpha virt. eigenvalues --    0.17736   0.18637   0.20439   0.24040   0.26106
 Alpha virt. eigenvalues --    0.27158   0.27704   0.30842   0.31028   0.32868
 Alpha virt. eigenvalues --    0.34766   0.36628   0.37582   0.39988   0.42528
 Alpha virt. eigenvalues --    0.43570   0.47909   0.51864   0.54395   0.55259
 Alpha virt. eigenvalues --    0.59203   0.61019   0.65029   0.66272   0.68701
 Alpha virt. eigenvalues --    0.72441   0.87501   0.88345   0.90660   0.98117
 Alpha virt. eigenvalues --    1.22346   1.24619   1.27436   1.28655   1.30405
 Alpha virt. eigenvalues --    1.30937   1.31195   1.33762   1.34025   1.34331
 Alpha virt. eigenvalues --    1.34684   1.36657   1.39579   1.42970   1.43632
 Alpha virt. eigenvalues --    1.43905   1.47451   1.50654   1.51579   1.52574
 Alpha virt. eigenvalues --    1.53811   1.55577   1.62842   1.67844   1.74523
 Alpha virt. eigenvalues --    1.78817   1.82236   1.85836   1.87524   1.95267
 Alpha virt. eigenvalues --    1.99657   2.03598   2.14839   2.21381   2.25757
 Alpha virt. eigenvalues --    2.27243   2.32753   2.35287   2.38179   2.54035
 Alpha virt. eigenvalues --    2.57637   2.61568   2.69711   2.71023   2.72383
 Alpha virt. eigenvalues --    2.76403   2.79433   2.82007   2.84416   2.88619
 Alpha virt. eigenvalues --    2.93761   3.04700   3.10231   3.21494   3.23446
 Alpha virt. eigenvalues --    3.31472   3.53385   3.97832   9.85027  21.62231
 Alpha virt. eigenvalues --   22.20835  43.43358
  Beta  occ. eigenvalues --  -66.43409 -24.83982 -24.83684 -24.83619 -19.28890
  Beta  occ. eigenvalues --  -10.34913 -10.33257  -5.52933  -3.87593  -3.87540
  Beta  occ. eigenvalues --   -3.87331  -1.33000  -1.30355  -1.30202  -1.08399
  Beta  occ. eigenvalues --   -0.90752  -0.70824  -0.67056  -0.60878  -0.59928
  Beta  occ. eigenvalues --   -0.58900  -0.58031  -0.56410  -0.54623  -0.54418
  Beta  occ. eigenvalues --   -0.52448  -0.52026  -0.51071  -0.50484  -0.46716
  Beta  occ. eigenvalues --   -0.43639  -0.40718
  Beta virt. eigenvalues --   -0.12512   0.03733   0.10234   0.13262   0.14860
  Beta virt. eigenvalues --    0.17215   0.18089   0.18964   0.20754   0.24308
  Beta virt. eigenvalues --    0.26390   0.27520   0.27866   0.31020   0.31988
  Beta virt. eigenvalues --    0.33091   0.34982   0.36935   0.38244   0.40110
  Beta virt. eigenvalues --    0.42907   0.45006   0.48895   0.52444   0.55261
  Beta virt. eigenvalues --    0.56443   0.59599   0.61358   0.65666   0.66967
  Beta virt. eigenvalues --    0.69282   0.72830   0.88065   0.88546   0.90797
  Beta virt. eigenvalues --    0.98531   1.23069   1.25046   1.27992   1.29228
  Beta virt. eigenvalues --    1.30567   1.31254   1.31668   1.33902   1.34138
  Beta virt. eigenvalues --    1.34710   1.34975   1.36857   1.40404   1.43279
  Beta virt. eigenvalues --    1.43932   1.44981   1.47915   1.51463   1.52168
  Beta virt. eigenvalues --    1.52800   1.54189   1.56365   1.63402   1.68837
  Beta virt. eigenvalues --    1.76658   1.79655   1.83154   1.86509   1.88156
  Beta virt. eigenvalues --    1.96375   2.00354   2.04597   2.14958   2.21598
  Beta virt. eigenvalues --    2.26323   2.28180   2.32938   2.36072   2.39196
  Beta virt. eigenvalues --    2.55094   2.58529   2.62480   2.70841   2.72643
  Beta virt. eigenvalues --    2.73801   2.78572   2.81651   2.83047   2.87240
  Beta virt. eigenvalues --    2.90409   2.96098   3.05646   3.12589   3.22039
  Beta virt. eigenvalues --    3.24550   3.33145   3.54717   4.00588   9.85034
  Beta virt. eigenvalues --   21.62879  22.21391  43.44531
          Condensed to atoms (all electrons):
              1          2          3          4          5          6
     1  Si  11.541409   0.381281   0.358001   0.347998   0.328877  -0.055460
     2  O    0.381281   7.996790  -0.012489  -0.010662  -0.009619   0.143317
     3  F    0.358001  -0.012489   8.968308  -0.006207  -0.006434  -0.000122
     4  F    0.347998  -0.010662  -0.006207   8.985534  -0.007345  -0.006269
     5  F    0.328877  -0.009619  -0.006434  -0.007345   8.992960   0.000509
     6  H   -0.055460   0.143317  -0.000122  -0.006269   0.000509   0.492334
     7  C    0.042070  -0.065577  -0.000347   0.013350  -0.014939   0.210370
     8  C   -0.010251  -0.003218   0.000066  -0.004819   0.010619   0.000732
     9  H   -0.000578  -0.000198  -0.000004  -0.000262  -0.000032  -0.008469
    10  H   -0.000353  -0.000016   0.000000  -0.000077   0.000741   0.004325
    11  H   -0.000312   0.001919  -0.000026  -0.000201   0.021369  -0.006679
              7          8          9         10         11
     1  Si   0.042070  -0.010251  -0.000578  -0.000353  -0.000312
     2  O   -0.065577  -0.003218  -0.000198  -0.000016   0.001919
     3  F   -0.000347   0.000066  -0.000004   0.000000  -0.000026
     4  F    0.013350  -0.004819  -0.000262  -0.000077  -0.000201
     5  F   -0.014939   0.010619  -0.000032   0.000741   0.021369
     6  H    0.210370   0.000732  -0.008469   0.004325  -0.006679
     7  C    5.268592   0.483264   0.384997  -0.050360  -0.035331
     8  C    0.483264   5.010883  -0.028285   0.395580   0.380096
     9  H    0.384997  -0.028285   0.460637  -0.003200   0.003324
    10  H   -0.050360   0.395580  -0.003200   0.509606  -0.013992
    11  H   -0.035331   0.380096   0.003324  -0.013992   0.471595
 Mulliken atomic charges:
              1
     1  Si   1.067317
     2  O   -0.421528
     3  F   -0.300745
     4  F   -0.311041
     5  F   -0.316706
     6  H    0.225411
     7  C   -0.236090
     8  C   -0.234668
     9  H    0.192069
    10  H    0.157744
    11  H    0.178238
 Sum of Mulliken atomic charges =   0.00000
 Mulliken charges with hydrogens summed into heavy atoms:
              1
     1  Si   1.067317
     2  O   -0.196118
     3  F   -0.300745
     4  F   -0.311041
     5  F   -0.316706
     7  C   -0.044021
     8  C    0.101314
 Sum of Mulliken charges with hydrogens summed into heavy atoms =   0.00000
          Atomic-Atomic Spin Densities.
              1          2          3          4          5          6
     1  Si  -0.006425   0.007007  -0.003281   0.001005   0.000764   0.000074
     2  O    0.007007   0.569452  -0.002817   0.000313   0.000018  -0.068219
     3  F   -0.003281  -0.002817   0.017398   0.000003   0.000005  -0.000168
     4  F    0.001005   0.000313   0.000003  -0.002947  -0.000030   0.000118
     5  F    0.000764   0.000018   0.000005  -0.000030  -0.001637   0.000296
     6  H    0.000074  -0.068219  -0.000168   0.000118   0.000296  -0.015254
     7  C   -0.002225  -0.081143  -0.000109   0.000225   0.000758   0.101595
     8  C    0.001008   0.008129   0.000013  -0.000053  -0.000323   0.001724
     9  H    0.000173   0.004596   0.000001  -0.000003  -0.000003  -0.005600
    10  H   -0.000086  -0.000480   0.000000   0.000001   0.000022   0.000681
    11  H    0.000145   0.002345   0.000005   0.000001  -0.000419  -0.002568
              7          8          9         10         11
     1  Si  -0.002225   0.001008   0.000173  -0.000086   0.000145
     2  O   -0.081143   0.008129   0.004596  -0.000480   0.002345
     3  F   -0.000109   0.000013   0.000001   0.000000   0.000005
     4  F    0.000225  -0.000053  -0.000003   0.000001   0.000001
     5  F    0.000758  -0.000323  -0.000003   0.000022  -0.000419
     6  H    0.101595   0.001724  -0.005600   0.000681  -0.002568
     7  C    0.561290  -0.035260  -0.007603  -0.012659  -0.010295
     8  C   -0.035260  -0.076928   0.000783   0.014989   0.011271
     9  H   -0.007603   0.000783   0.034744  -0.003287   0.000993
    10  H   -0.012659   0.014989  -0.003287   0.059419  -0.007937
    11  H   -0.010295   0.011271   0.000993  -0.007937   0.031899
 Mulliken atomic spin densities:
              1
     1  Si  -0.001839
     2  O    0.439201
     3  F    0.011050
     4  F   -0.001365
     5  F   -0.000547
     6  H    0.012679
     7  C    0.514573
     8  C   -0.074648
     9  H    0.024793
    10  H    0.050662
    11  H    0.025441
 Sum of Mulliken atomic spin densities =   1.00000
 Electronic spatial extent (au):  <R**2>=           2513.5129
 Charge=              0.0000 electrons
 Dipole moment (field-independent basis, Debye):
    X=             -1.3818    Y=              3.6439    Z=              0.6938  Tot=              3.9584
 Quadrupole moment (field-independent basis, Debye-Ang):
   XX=            -39.0285   YY=            -31.8195   ZZ=            -51.2574
   XY=            -10.7102   XZ=             -0.5996   YZ=             -1.0040
 Traceless Quadrupole moment (field-independent basis, Debye-Ang):
   XX=              1.6733   YY=              8.8823   ZZ=            -10.5556
   XY=            -10.7102   XZ=             -0.5996   YZ=             -1.0040
 Octapole moment (field-independent basis, Debye-Ang**2):
  XXX=            268.2185  YYY=            -89.5817  ZZZ=            144.6166  XYY=             56.5628
  XXY=            -12.7264  XXZ=             43.3968  XZZ=            107.8131  YZZ=            -62.9214
  YYZ=             40.3891  XYZ=              5.9728
 Hexadecapole moment (field-independent basis, Debye-Ang**3):
 XXXX=          -1429.4776 YYYY=           -757.6133 ZZZZ=           -499.7922 XXXY=            272.4489
 XXXZ=           -259.0120 YYYX=            260.2501 YYYZ=             38.9607 ZZZX=           -277.5464
 ZZZY=             95.3051 XXYY=           -272.1929 XXZZ=           -356.3898 YYZZ=           -272.6731
 XXYZ=             -6.0671 YYXZ=            -60.5382 ZZXY=            167.3435
 N-N= 4.024284177049D+02 E-N=-3.843125314509D+03  KE= 1.108410122038D+03
                          Isotropic Fermi Contact Couplings
        Atom                 a.u.       MegaHertz       Gauss      10(-4) cm-1
     1  Si(29)            -0.02542      22.58827       8.06006       7.53464
     2  O(17)              0.09458     -57.33650     -20.45909     -19.12540
     3  F(19)              0.00638      26.83498       9.57539       8.95119
     4  F(19)             -0.00231      -9.71676      -3.46718      -3.24116
     5  F(19)             -0.00155      -6.51908      -2.32617      -2.17453
     6  H(1)              -0.00247     -11.04215      -3.94011      -3.68327
     7  C(13)              0.12347     138.80396      49.52870      46.30002
     8  C(13)             -0.00711      -7.99125      -2.85147      -2.66559
     9  H(1)               0.01430      63.90977      22.80460      21.31801
    10  H(1)               0.02432     108.71924      38.79373      36.26483
    11  H(1)               0.01336      59.69600      21.30102      19.91244
 --------------------------------------------------------
       Center         ----  Spin Dipole Couplings  ----
                      3XX-RR        3YY-RR        3ZZ-RR
 --------------------------------------------------------
     1   Atom       -0.001551     -0.008022      0.009573
     2   Atom       -0.403350      1.281532     -0.878182
     3   Atom       -0.046200      0.032087      0.014113
     4   Atom        0.001772      0.003899     -0.005670
     5   Atom       -0.005855      0.010004     -0.004149
     6   Atom       -0.054022      0.149458     -0.095436
     7   Atom       -0.205570      0.459763     -0.254193
     8   Atom        0.057434      0.018033     -0.075467
     9   Atom        0.022438      0.014932     -0.037370
    10   Atom        0.005942      0.002397     -0.008339
    11   Atom        0.014018     -0.005127     -0.008891
 --------------------------------------------------------
                        XY            XZ            YZ
 --------------------------------------------------------
     1   Atom       -0.011128      0.022613     -0.008250
     2   Atom       -1.097790      0.190161     -0.399031
     3   Atom        0.017263      0.016596      0.071952
     4   Atom       -0.001084     -0.001082     -0.000048
     5   Atom       -0.003456     -0.003156      0.002900
     6   Atom       -0.123952      0.020090     -0.038651
     7   Atom       -0.362546      0.019362     -0.069909
     8   Atom       -0.019254      0.054568     -0.035638
     9   Atom        0.032095      0.002645     -0.000079
    10   Atom       -0.005970      0.002221      0.001144
    11   Atom        0.004238      0.006229      0.003010
 --------------------------------------------------------


 ---------------------------------------------------------------------------------
              Anisotropic Spin Dipole Couplings in Principal Axis System
 ---------------------------------------------------------------------------------

       Atom             a.u.   MegaHertz   Gauss  10(-4) cm-1        Axes

              Baa    -0.0208     2.203     0.786     0.735  0.7894  0.3743 -0.4866
     1 Si(29) Bbb    -0.0110     1.171     0.418     0.391 -0.1181  0.8704  0.4779
              Bcc     0.0318    -3.374    -1.204    -1.126  0.6024 -0.3198  0.7313
 
              Baa    -0.9529    68.948    24.602    22.999  0.4658  0.3722  0.8028
     2 O(17)  Bbb    -0.9405    68.054    24.283    22.700  0.7698  0.2770 -0.5751
              Bcc     1.8934  -137.002   -48.886   -45.699 -0.4365  0.8858 -0.1575
 
              Baa    -0.0508   -25.530    -9.110    -8.516  0.8069  0.2823 -0.5189
     3 F(19)  Bbb    -0.0487   -24.461    -8.728    -8.159 -0.5681  0.6117 -0.5506
              Bcc     0.0995    49.991    17.838    16.675  0.1620  0.7390  0.6539
 
              Baa    -0.0058    -2.927    -1.045    -0.976  0.1439  0.0209  0.9894
     4 F(19)  Bbb     0.0015     0.733     0.262     0.245  0.9058  0.3999 -0.1402
              Bcc     0.0044     2.194     0.783     0.732 -0.3986  0.9163  0.0386
 
              Baa    -0.0083    -4.186    -1.493    -1.396  0.8175  0.0635  0.5724
     5 F(19)  Bbb    -0.0032    -1.598    -0.570    -0.533 -0.5285 -0.3121  0.7895
              Bcc     0.0115     5.784     2.064     1.929 -0.2288  0.9479  0.2216
 
              Baa    -0.1129   -60.224   -21.490   -20.089  0.9030  0.4060 -0.1405
     6 H(1)   Bbb    -0.1013   -54.061   -19.290   -18.033  0.0692  0.1853  0.9802
              Bcc     0.2142   114.286    40.780    38.122 -0.4240  0.8949 -0.1392
 
              Baa    -0.3660   -49.109   -17.523   -16.381  0.9082  0.4070  0.0972
     7 C(13)  Bbb    -0.2590   -34.761   -12.403   -11.595 -0.1219  0.0350  0.9919
              Bcc     0.6250    83.869    29.927    27.976 -0.4003  0.9128 -0.0814
 
              Baa    -0.1014   -13.608    -4.856    -4.539 -0.2911  0.2301  0.9286
     8 C(13)  Bbb     0.0111     1.494     0.533     0.498  0.4579  0.8858 -0.0760
              Bcc     0.0903    12.113     4.322     4.041  0.8400 -0.4031  0.3632
 
              Baa    -0.0375   -20.035    -7.149    -6.683 -0.0665  0.0422  0.9969
     9 H(1)   Bbb    -0.0135    -7.198    -2.568    -2.401 -0.6612  0.7464 -0.0757
              Bcc     0.0510    27.233     9.717     9.084  0.7473  0.6642  0.0218
 
              Baa    -0.0091    -4.863    -1.735    -1.622 -0.2239 -0.2107  0.9516
    10 H(1)   Bbb    -0.0013    -0.719    -0.257    -0.240  0.5474  0.7806  0.3016
              Bcc     0.0105     5.582     1.992     1.862  0.8064 -0.5884  0.0594
 
              Baa    -0.0112    -5.952    -2.124    -1.985 -0.1713 -0.3410  0.9243
    11 H(1)   Bbb    -0.0055    -2.951    -1.053    -0.984 -0.2887  0.9144  0.2838
              Bcc     0.0167     8.903     3.177     2.970  0.9420  0.2182  0.2551
 

 ---------------------------------------------------------------------------------

 No NMR shielding tensors so no spin-rotation constants.
 Leave Link  601 at Sat May 13 17:58:48 2017, MaxMem=   33554432 cpu:       3.3
 (Enter /share/apps/gaussian09/g09/l9999.exe)
 1\1\GINC-COMPUTE-0-0\FOpt\UwB97XD\Gen\C2H4F3O1Si1(2)\CRAIGV\13-May-201
 7\0\\#p opt=(modredundant,tight) int=grid=ultrafine wb97xd/gen nosymm 
 geom=connectivity\\TS[F3SiO - H - C2H3]\\0,2\Si,-1.8154607495,0.274384
 0812,-1.2424845273\O,-1.2912188574,1.0273632344,0.0948687274\F,-1.2780
 8823,-1.24538529,-1.2346745\F,-1.32747323,0.97289271,-2.6158675\F,-3.4
 3667323,0.22600971,-1.3264505\H,-1.7994055177,2.2236451653,0.120478571
 3\C,-2.3810815687,3.344889986,-0.1868698338\C,-3.6623089318,3.31537453
 64,-0.4362738957\H,-1.6439323094,4.13818279,-0.1682804281\H,-4.2084490
 446,4.2405732469,-0.6065085126\H,-4.2265487998,2.3901274134,-0.4707516
 407\\Version=EM64L-G09RevC.01\HF=-742.8476443\S2=0.761273\S2-1=0.\S2A=
 0.750083\RMSD=3.605e-09\RMSF=5.184e-03\Dipole=-0.54364,1.4336365,0.272
 9812\Quadrupole=1.2440536,6.6037847,-7.8478383,-7.962807,-0.4457527,-0
 .7464213\PG=C01 [X(C2H4F3O1Si1)]\\@


 MAN IS A SINGULAR CREATURE.  HE HAS A SET OF GIFTS
 WHICH MAKE HIM UNIQUE AMONG THE ANIMALS: SO THAT, 
 UNLIKE THEM, HE IS NOT A FIGURE IN THE LANDSCAPE --
 HE IS A SHAPER OF THE LANDSCAPE.

                       -- JACOB BRONOWSKI
 Job cpu time:  0 days  3 hours 41 minutes 55.1 seconds.
 File lengths (MBytes):  RWF=     24 Int=      0 D2E=      0 Chk=      2 Scr=      1
 Normal termination of Gaussian 09 at Sat May 13 17:58:48 2017.
